&FCI NORB= 10,NELEC= 14,MS2=0,
 ORBSYM=1,1,1,1,1,1,1,1,1,1
 ISYM=1,
&END
 0.5886069798     1     1     2     2
 -0.0000000001     1     1     2     3
 -0.0130390824     1     1     2     6
 0.0000000001     1     1     2     7
 -0.0044753860     1     1     2    10
 -0.0000000001     1     1     3     2
 0.9127271175     1     1     3     3
 0.0000000054     1     1     3     6
 -0.1352996378     1     1     3     7
 -0.0000000015     1     1     3    10
 0.7494744732     1     1     4     4
 0.0000000006     1     1     4     5
 0.0000000019     1     1     4     8
 0.0000000048     1     1     4     9
 0.0000000006     1     1     5     4
 0.7494744739     1     1     5     5
 -0.0000000033     1     1     5     8
 -0.0000000011     1     1     5     9
 -0.0130390824     1     1     6     2
 0.0000000054     1     1     6     3
 0.6507047517     1     1     6     6
 -0.0000000003     1     1     6     7
 0.1034871599     1     1     6    10
 0.0000000001     1     1     7     2
 -0.1352996378     1     1     7     3
 -0.0000000003     1     1     7     6
 0.7035184478     1     1     7     7
 0.0000000299     1     1     7    10
 0.0000000019     1     1     8     4
 -0.0000000033     1     1     8     5
 0.5310651891     1     1     8     8
 0.0000000001     1     1     8     9
 0.0000000048     1     1     9     4
 -0.0000000011     1     1     9     5
 0.0000000001     1     1     9     8
 0.5310651892     1     1     9     9
 -0.0044753860     1     1    10     2
 -0.0000000015     1     1    10     3
 0.1034871599     1     1    10     6
 0.0000000299     1     1    10     7
 0.3106393234     1     1    10    10
 -0.5886069798     1     2     2     1
 0.0213981794     1     2     2     3
 0.0000000001     1     2     2     6
 -0.0269789410     1     2     2     7
 -0.0000000003     1     2     2    10
 0.0000000001     1     2     3     1
 -0.0000000025     1     2     3     3
 -0.1004751656     1     2     3     6
 0.0000000006     1     2     3     7
 -0.0358772639     1     2     3    10
 -0.0000000004     1     2     4     5
 0.0141606424     1     2     4     8
 0.1391902768     1     2     4     9
 -0.0000000004     1     2     5     4
 -0.0000000005     1     2     5     5
 -0.1391902783     1     2     5     8
 0.0141606455     1     2     5     9
 0.0130390824     1     2     6     1
 -0.1014496857     1     2     6     3
 -0.0000000047     1     2     6     6
 -0.2262225676     1     2     6     7
 0.0000000085     1     2     6    10
 -0.0000000001     1     2     7     1
 -0.0000000006     1     2     7     3
 -0.2274399752     1     2     7     6
 0.0000000002     1     2     7     7
 -0.0394451841     1     2     7    10
 0.0140802589     1     2     8     4
 -0.1384001582     1     2     8     5
 -0.0000000002     1     2     8     8
 -0.0000000003     1     2     8     9
 0.1384001567     1     2     9     4
 0.0140802620     1     2     9     5
 -0.0000000003     1     2     9     8
 -0.0000000004     1     2     9     9
 0.0044753860     1     2    10     1
 -0.0361530396     1     2    10     3
 0.0000000084     1     2    10     6
 -0.0390094348     1     2    10     7
 0.0000000012     1     2    10    10
 0.0000000001     1     3     2     1
 -0.0213981794     1     3     2     2
 0.0009663386     1     3     2     6
 0.0000000011     1     3     2     7
 0.0003146201     1     3     2    10
 -0.9127271175     1     3     3     1
 0.0000000025     1     3     3     2
 0.0000000009     1     3     3     6
 -0.0302435595     1     3     3     7
 -0.0000000001     1     3     3    10
 0.0198968055     1     3     4     4
 -0.0000000003     1     3     4     5
 0.0000000006     1     3     4     8
 0.0000000008     1     3     4     9
 -0.0000000003     1     3     5     4
 0.0198968050     1     3     5     5
 -0.0000000002     1     3     5     8
 -0.0000000005     1     3     5     9
 -0.0000000054     1     3     6     1
 0.1014496857     1     3     6     2
 0.0126902733     1     3     6     6
 -0.0000000011     1     3     6     7
 0.0031028262     1     3     6    10
 0.1352996378     1     3     7     1
 0.0000000006     1     3     7     2
 -0.0000000010     1     3     7     6
 0.0275093588     1     3     7     7
 0.0000000064     1     3     7    10
 0.0000000002     1     3     8     4
 -0.0000000005     1     3     8     5
 0.0093141523     1     3     8     8
 -0.0000000011     1     3     8     9
 0.0000000006     1     3     9     4
 -0.0000000011     1     3     9     8
 0.0093141513     1     3     9     9
 0.0000000015     1     3    10     1
 0.0361530396     1     3    10     2
 0.0024681283     1     3    10     6
 0.0000000065     1     3    10     7
 0.0023947170     1     3    10    10
 0.0000763832     1     4     2     8
 0.0007507992     1     4     2     9
 0.0000000005     1     4     3     8
 0.0000000002     1     4     3     9
 -0.7494744732     1     4     4     1
 -0.0198968055     1     4     4     3
 -0.0000000007     1     4     4     6
 -0.0192224737     1     4     4     7
 0.0000000003     1     4     4    10
 -0.0000000006     1     4     5     1
 0.0000000004     1     4     5     2
 0.0000000003     1     4     5     3
 0.0000000002     1     4     5     6
 0.0000000002     1     4     5     7
 -0.0000000007     1     4     5    10
 0.0004092528     1     4     6     8
 0.0040227007     1     4     6     9
 -0.0000000007     1     4     7     8
 -0.0000000004     1     4     7     9
 -0.0000000019     1     4     8     1
 -0.0140802589     1     4     8     2
 -0.0000000002     1     4     8     3
 0.0010432814     1     4     8     6
 -0.0000000001     1     4     8     7
 0.0003891875     1     4     8    10
 -0.0000000048     1     4     9     1
 -0.1384001567     1     4     9     2
 -0.0000000006     1     4     9     3
 0.0102548016     1     4     9     6
 -0.0000000003     1     4     9     7
 0.0038254670     1     4     9    10
 0.0000791497     1     4    10     8
 0.0007779925     1     4    10     9
 -0.0007507992     1     5     2     8
 0.0000763832     1     5     2     9
 0.0000000003     1     5     3     8
 -0.0000000006     1     5     3     9
 -0.0000000006     1     5     4     1
 0.0000000004     1     5     4     2
 0.0000000003     1     5     4     3
 0.0000000002     1     5     4     6
 0.0000000002     1     5     4     7
 -0.0000000007     1     5     4    10
 -0.7494744739     1     5     5     1
 0.0000000005     1     5     5     2
 -0.0198968050     1     5     5     3
 -0.0000000003     1     5     5     6
 -0.0192224734     1     5     5     7
 -0.0000000006     1     5     5    10
 -0.0040227008     1     5     6     8
 0.0004092531     1     5     6     9
 -0.0000000003     1     5     7     8
 0.0000000007     1     5     7     9
 0.0000000033     1     5     8     1
 0.1384001582     1     5     8     2
 0.0000000005     1     5     8     3
 -0.0102548014     1     5     8     6
 0.0000000002     1     5     8     7
 -0.0038254668     1     5     8    10
 0.0000000011     1     5     9     1
 -0.0140802620     1     5     9     2
 0.0010432810     1     5     9     6
 0.0003891869     1     5     9    10
 -0.0007779925     1     5    10     8
 0.0000791497     1     5    10     9
 0.0130390824     1     6     2     1
 -0.0000000001     1     6     2     2
 -0.0009663386     1     6     2     3
 0.0012121472     1     6     2     7
 0.0000000001     1     6     2    10
 -0.0000000054     1     6     3     1
 0.1004751656     1     6     3     2
 -0.0000000009     1     6     3     3
 -0.0000000001     1     6     3     7
 0.0003410646     1     6     3    10
 0.0000000007     1     6     4     4
 -0.0000000002     1     6     4     5
 -0.0007384548     1     6     4     8
 -0.0072585460     1     6     4     9
 -0.0000000002     1     6     5     4
 0.0000000003     1     6     5     5
 0.0072585457     1     6     5     8
 -0.0007384541     1     6     5     9
 -0.6507047517     1     6     6     1
 0.0000000047     1     6     6     2
 -0.0126902733     1     6     6     3
 0.0013658447     1     6     6     7
 -0.0000000041     1     6     6    10
 0.0000000003     1     6     7     1
 0.2274399752     1     6     7     2
 0.0000000010     1     6     7     3
 -0.0000000014     1     6     7     7
 0.0007411877     1     6     7    10
 -0.0010432814     1     6     8     4
 0.0102548014     1     6     8     5
 0.0000000003     1     6     8     8
 0.0000000018     1     6     8     9
 -0.0102548016     1     6     9     4
 -0.0010432810     1     6     9     5
 0.0000000018     1     6     9     8
 0.0000000017     1     6     9     9
 -0.1034871599     1     6    10     1
 -0.0000000084     1     6    10     2
 -0.0024681283     1     6    10     3
 0.0004933472     1     6    10     7
 0.0000001362     1     6    10    10
 -0.0000000001     1     7     2     1
 0.0269789410     1     7     2     2
 -0.0000000011     1     7     2     3
 -0.0012121472     1     7     2     6
 -0.0004252464     1     7     2    10
 0.1352996378     1     7     3     1
 -0.0000000006     1     7     3     2
 0.0302435595     1     7     3     3
 0.0000000001     1     7     3     6
 -0.0000000004     1     7     3    10
 0.0192224737     1     7     4     4
 -0.0000000002     1     7     4     5
 -0.0000000007     1     7     4     8
 -0.0000000002     1     7     4     9
 -0.0000000002     1     7     5     4
 0.0192224734     1     7     5     5
 -0.0000000005     1     7     5     8
 0.0000000008     1     7     5     9
 0.0000000003     1     7     6     1
 0.2262225676     1     7     6     2
 0.0000000011     1     7     6     3
 -0.0013658447     1     7     6     6
 0.0004023196     1     7     6    10
 -0.7035184478     1     7     7     1
 -0.0000000002     1     7     7     2
 -0.0275093588     1     7     7     3
 0.0000000014     1     7     7     6
 0.0000000050     1     7     7    10
 0.0000000001     1     7     8     4
 -0.0000000002     1     7     8     5
 0.0061267522     1     7     8     8
 -0.0000000013     1     7     8     9
 0.0000000003     1     7     9     4
 -0.0000000013     1     7     9     8
 0.0061267511     1     7     9     9
 -0.0000000299     1     7    10     1
 0.0390094348     1     7    10     2
 -0.0000000065     1     7    10     3
 -0.0004933472     1     7    10     6
 -0.0014787416     1     7    10    10
 -0.0000763832     1     8     2     4
 0.0007507992     1     8     2     5
 -0.0000000005     1     8     3     4
 -0.0000000003     1     8     3     5
 -0.0000000019     1     8     4     1
 -0.0141606424     1     8     4     2
 -0.0000000006     1     8     4     3
 0.0007384548     1     8     4     6
 0.0000000007     1     8     4     7
 0.0003286081     1     8     4    10
 0.0000000033     1     8     5     1
 0.1391902783     1     8     5     2
 0.0000000002     1     8     5     3
 -0.0072585457     1     8     5     6
 0.0000000005     1     8     5     7
 -0.0032300060     1     8     5    10
 -0.0004092528     1     8     6     4
 0.0040227008     1     8     6     5
 0.0000000007     1     8     7     4
 0.0000000003     1     8     7     5
 -0.5310651891     1     8     8     1
 0.0000000002     1     8     8     2
 -0.0093141523     1     8     8     3
 -0.0000000003     1     8     8     6
 -0.0061267522     1     8     8     7
 -0.0000000001     1     8     9     1
 0.0000000003     1     8     9     2
 0.0000000011     1     8     9     3
 -0.0000000018     1     8     9     6
 0.0000000013     1     8     9     7
 -0.0000000012     1     8     9    10
 -0.0000791497     1     8    10     4
 0.0007779925     1     8    10     5
 -0.0007507992     1     9     2     4
 -0.0000763832     1     9     2     5
 -0.0000000002     1     9     3     4
 0.0000000006     1     9     3     5
 -0.0000000048     1     9     4     1
 -0.1391902768     1     9     4     2
 -0.0000000008     1     9     4     3
 0.0072585460     1     9     4     6
 0.0000000002     1     9     4     7
 0.0032300067     1     9     4    10
 0.0000000011     1     9     5     1
 -0.0141606455     1     9     5     2
 0.0000000005     1     9     5     3
 0.0007384541     1     9     5     6
 -0.0000000008     1     9     5     7
 0.0003286068     1     9     5    10
 -0.0040227007     1     9     6     4
 -0.0004092531     1     9     6     5
 0.0000000004     1     9     7     4
 -0.0000000007     1     9     7     5
 -0.0000000001     1     9     8     1
 0.0000000003     1     9     8     2
 0.0000000011     1     9     8     3
 -0.0000000018     1     9     8     6
 0.0000000013     1     9     8     7
 -0.0000000012     1     9     8    10
 -0.5310651892     1     9     9     1
 0.0000000004     1     9     9     2
 -0.0093141513     1     9     9     3
 -0.0000000017     1     9     9     6
 -0.0061267511     1     9     9     7
 -0.0000000009     1     9     9    10
 -0.0007779925     1     9    10     4
 -0.0000791497     1     9    10     5
 0.0044753860     1    10     2     1
 0.0000000003     1    10     2     2
 -0.0003146201     1    10     2     3
 -0.0000000001     1    10     2     6
 0.0004252464     1    10     2     7
 0.0000000015     1    10     3     1
 0.0358772639     1    10     3     2
 0.0000000001     1    10     3     3
 -0.0003410646     1    10     3     6
 0.0000000004     1    10     3     7
 -0.0000000003     1    10     4     4
 0.0000000007     1    10     4     5
 -0.0003286081     1    10     4     8
 -0.0032300067     1    10     4     9
 0.0000000007     1    10     5     4
 0.0000000006     1    10     5     5
 0.0032300060     1    10     5     8
 -0.0003286068     1    10     5     9
 -0.1034871599     1    10     6     1
 -0.0000000085     1    10     6     2
 -0.0031028262     1    10     6     3
 0.0000000041     1    10     6     6
 -0.0004023196     1    10     6     7
 -0.0000000299     1    10     7     1
 0.0394451841     1    10     7     2
 -0.0000000064     1    10     7     3
 -0.0007411877     1    10     7     6
 -0.0000000050     1    10     7     7
 -0.0003891875     1    10     8     4
 0.0038254668     1    10     8     5
 0.0000000012     1    10     8     9
 -0.0038254670     1    10     9     4
 -0.0003891869     1    10     9     5
 0.0000000012     1    10     9     8
 0.0000000009     1    10     9     9
 -0.3106393234     1    10    10     1
 -0.0000000012     1    10    10     2
 -0.0023947170     1    10    10     3
 -0.0000001362     1    10    10     6
 0.0014787416     1    10    10     7
 -0.5886069798     2     1     1     2
 0.0000000001     2     1     1     3
 0.0130390824     2     1     1     6
 -0.0000000001     2     1     1     7
 0.0044753860     2     1     1    10
 0.0213981794     2     1     3     2
 -0.0000000025     2     1     3     3
 -0.1014496857     2     1     3     6
 -0.0000000006     2     1     3     7
 -0.0361530396     2     1     3    10
 -0.0000000004     2     1     4     5
 0.0140802589     2     1     4     8
 0.1384001567     2     1     4     9
 -0.0000000004     2     1     5     4
 -0.0000000005     2     1     5     5
 -0.1384001582     2     1     5     8
 0.0140802620     2     1     5     9
 0.0000000001     2     1     6     2
 -0.1004751656     2     1     6     3
 -0.0000000047     2     1     6     6
 -0.2274399752     2     1     6     7
 0.0000000084     2     1     6    10
 -0.0269789410     2     1     7     2
 0.0000000006     2     1     7     3
 -0.2262225676     2     1     7     6
 0.0000000002     2     1     7     7
 -0.0390094348     2     1     7    10
 0.0141606424     2     1     8     4
 -0.1391902783     2     1     8     5
 -0.0000000002     2     1     8     8
 -0.0000000003     2     1     8     9
 0.1391902768     2     1     9     4
 0.0141606455     2     1     9     5
 -0.0000000003     2     1     9     8
 -0.0000000004     2     1     9     9
 -0.0000000003     2     1    10     2
 -0.0358772639     2     1    10     3
 0.0000000085     2     1    10     6
 -0.0394451841     2     1    10     7
 0.0000000012     2     1    10    10
 0.5886069798     2     2     1     1
 -0.0213981794     2     2     1     3
 -0.0000000001     2     2     1     6
 0.0269789410     2     2     1     7
 0.0000000003     2     2     1    10
 -0.0213981794     2     2     3     1
 0.9131836636     2     2     3     3
 0.0000000050     2     2     3     6
 -0.1367392126     2     2     3     7
 -0.0000000015     2     2     3    10
 0.7507282027     2     2     4     4
 0.0000000006     2     2     4     5
 0.0000000017     2     2     4     8
 0.0000000045     2     2     4     9
 0.0000000006     2     2     5     4
 0.7507282033     2     2     5     5
 -0.0000000032     2     2     5     8
 -0.0000000009     2     2     5     9
 -0.0000000001     2     2     6     1
 0.0000000050     2     2     6     3
 0.6503921010     2     2     6     6
 0.0000000004     2     2     6     7
 0.1033108732     2     2     6    10
 0.0269789410     2     2     7     1
 -0.1367392126     2     2     7     3
 0.0000000004     2     2     7     6
 0.7060712844     2     2     7     7
 0.0000000300     2     2     7    10
 0.0000000017     2     2     8     4
 -0.0000000032     2     2     8     5
 0.5307595808     2     2     8     8
 0.0000000004     2     2     8     9
 0.0000000045     2     2     9     4
 -0.0000000009     2     2     9     5
 0.0000000004     2     2     9     8
 0.5307595811     2     2     9     9
 0.0000000003     2     2    10     1
 -0.0000000015     2     2    10     3
 0.1033108732     2     2    10     6
 0.0000000300     2     2    10     7
 0.3106194401     2     2    10    10
 -0.0000000001     2     3     1     1
 0.0213981794     2     3     1     2
 -0.0009663386     2     3     1     6
 -0.0000000011     2     3     1     7
 -0.0003146201     2     3     1    10
 0.0000000025     2     3     3     1
 -0.9131836636     2     3     3     2
 0.0198530510     2     3     3     6
 0.0000000002     2     3     3     7
 0.0072474815     2     3     3    10
 0.0000000005     2     3     4     4
 -0.0000000013     2     3     4     5
 0.0023398706     2     3     4     8
 0.0229994614     2     3     4     9
 -0.0000000013     2     3     5     4
 -0.0000000012     2     3     5     5
 -0.0229994611     2     3     5     8
 0.0023398699     2     3     5     9
 0.1004751656     2     3     6     1
 -0.0000000050     2     3     6     2
 0.0000000020     2     3     6     6
 -0.0237335089     2     3     6     7
 0.0000000071     2     3     6    10
 -0.0000000006     2     3     7     1
 0.1367392126     2     3     7     2
 -0.0313689042     2     3     7     6
 0.0000000023     2     3     7     7
 -0.0085131468     2     3     7    10
 0.0014834025     2     3     8     4
 -0.0145809167     2     3     8     5
 0.0000000001     2     3     8     8
 -0.0000000016     2     3     8     9
 0.0145809169     2     3     9     4
 0.0014834020     2     3     9     5
 -0.0000000016     2     3     9     8
 -0.0000000011     2     3     9     9
 0.0358772639     2     3    10     1
 0.0000000015     2     3    10     2
 0.0000000063     2     3    10     6
 -0.0045165262     2     3    10     7
 -0.0000001263     2     3    10    10
 -0.0000763832     2     4     1     8
 -0.0007507992     2     4     1     9
 0.0006795510     2     4     3     8
 0.0066795618     2     4     3     9
 -0.7507282027     2     4     4     2
 -0.0000000005     2     4     4     3
 0.0222371270     2     4     4     6
 0.0084020879     2     4     4    10
 0.0000000004     2     4     5     1
 -0.0000000006     2     4     5     2
 0.0000000013     2     4     5     3
 -0.0000000004     2     4     5     6
 0.0000000001     2     4     5     7
 -0.0000000002     2     4     5    10
 0.0000000002     2     4     6     8
 -0.0001733490     2     4     7     8
 -0.0017039134     2     4     7     9
 -0.0141606424     2     4     8     1
 -0.0000000017     2     4     8     2
 -0.0014834025     2     4     8     3
 0.0000000004     2     4     8     6
 -0.0000551129     2     4     8     7
 -0.0000000020     2     4     8    10
 -0.1391902768     2     4     9     1
 -0.0000000045     2     4     9     2
 -0.0145809169     2     4     9     3
 0.0000000005     2     4     9     6
 -0.0005417242     2     4     9     7
 -0.0000000005     2     4     9    10
 -0.0000000020     2     4    10     8
 -0.0000000010     2     4    10     9
 0.0007507992     2     5     1     8
 -0.0000763832     2     5     1     9
 -0.0066795618     2     5     3     8
 0.0006795511     2     5     3     9
 0.0000000004     2     5     4     1
 -0.0000000006     2     5     4     2
 0.0000000013     2     5     4     3
 -0.0000000004     2     5     4     6
 0.0000000001     2     5     4     7
 -0.0000000002     2     5     4    10
 0.0000000005     2     5     5     1
 -0.7507282033     2     5     5     2
 0.0000000012     2     5     5     3
 0.0222371265     2     5     5     6
 0.0000000001     2     5     5     7
 0.0084020875     2     5     5    10
 0.0000000001     2     5     6     8
 -0.0000000001     2     5     6     9
 0.0017039135     2     5     7     8
 -0.0001733492     2     5     7     9
 0.1391902783     2     5     8     1
 0.0000000032     2     5     8     2
 0.0145809167     2     5     8     3
 -0.0000000001     2     5     8     6
 0.0005417241     2     5     8     7
 -0.0000000016     2     5     8    10
 -0.0141606455     2     5     9     1
 0.0000000009     2     5     9     2
 -0.0014834020     2     5     9     3
 -0.0000000004     2     5     9     6
 -0.0000551127     2     5     9     7
 0.0000000021     2     5     9    10
 -0.0000000011     2     5    10     8
 0.0000000021     2     5    10     9
 -0.0130390824     2     6     1     1
 0.0000000001     2     6     1     2
 0.0009663386     2     6     1     3
 -0.0012121472     2     6     1     7
 -0.0000000001     2     6     1    10
 0.1014496857     2     6     3     1
 -0.0000000050     2     6     3     2
 -0.0198530510     2     6     3     3
 0.0076088461     2     6     3     7
 0.0000000008     2     6     3    10
 -0.0222371270     2     6     4     4
 0.0000000004     2     6     4     5
 -0.0000000003     2     6     4     8
 -0.0000000004     2     6     4     9
 0.0000000004     2     6     5     4
 -0.0222371265     2     6     5     5
 0.0000000001     2     6     5     8
 0.0000000002     2     6     5     9
 0.0000000047     2     6     6     1
 -0.6503921010     2     6     6     2
 -0.0000000020     2     6     6     3
 0.0000000010     2     6     6     7
 -0.0000870412     2     6     6    10
 0.2262225676     2     6     7     1
 -0.0000000004     2     6     7     2
 0.0313689042     2     6     7     3
 -0.0236248401     2     6     7     7
 -0.0000000072     2     6     7    10
 -0.0000000004     2     6     8     4
 0.0000000001     2     6     8     5
 -0.0119516725     2     6     8     8
 0.0000000016     2     6     8     9
 -0.0000000005     2     6     9     4
 0.0000000004     2     6     9     5
 0.0000000016     2     6     9     8
 -0.0119516713     2     6     9     9
 -0.0000000085     2     6    10     1
 -0.1033108732     2     6    10     2
 -0.0000000063     2     6    10     3
 -0.0000000076     2     6    10     7
 0.0004570028     2     6    10    10
 0.0000000001     2     7     1     1
 -0.0269789410     2     7     1     2
 0.0000000011     2     7     1     3
 0.0012121472     2     7     1     6
 0.0004252464     2     7     1    10
 0.0000000006     2     7     3     1
 0.1367392126     2     7     3     2
 -0.0000000002     2     7     3     3
 -0.0076088461     2     7     3     6
 -0.0034400066     2     7     3    10
 -0.0000000001     2     7     4     5
 -0.0001722437     2     7     4     8
 -0.0016930482     2     7     4     9
 -0.0000000001     2     7     5     4
 -0.0000000001     2     7     5     5
 0.0016930483     2     7     5     8
 -0.0001722438     2     7     5     9
 0.2274399752     2     7     6     1
 -0.0000000004     2     7     6     2
 0.0237335089     2     7     6     3
 -0.0000000010     2     7     6     6
 0.0000000001     2     7     6    10
 -0.0000000002     2     7     7     1
 -0.7060712844     2     7     7     2
 -0.0000000023     2     7     7     3
 0.0236248401     2     7     7     6
 0.0060196424     2     7     7    10
 0.0000551129     2     7     8     4
 -0.0005417241     2     7     8     5
 -0.0000000003     2     7     8     8
 -0.0000000005     2     7     8     9
 0.0005417242     2     7     9     4
 0.0000551127     2     7     9     5
 -0.0000000005     2     7     9     8
 -0.0000000007     2     7     9     9
 0.0394451841     2     7    10     1
 -0.0000000300     2     7    10     2
 0.0045165262     2     7    10     3
 0.0000000076     2     7    10     6
 -0.0000000472     2     7    10    10
 0.0000763832     2     8     1     4
 -0.0007507992     2     8     1     5
 -0.0006795510     2     8     3     4
 0.0066795618     2     8     3     5
 -0.0140802589     2     8     4     1
 -0.0000000017     2     8     4     2
 -0.0023398706     2     8     4     3
 0.0000000003     2     8     4     6
 0.0001722437     2     8     4     7
 0.0000000005     2     8     4    10
 0.1384001582     2     8     5     1
 0.0000000032     2     8     5     2
 0.0229994611     2     8     5     3
 -0.0000000001     2     8     5     6
 -0.0016930483     2     8     5     7
 -0.0000000001     2     8     5    10
 -0.0000000002     2     8     6     4
 -0.0000000001     2     8     6     5
 0.0001733490     2     8     7     4
 -0.0017039135     2     8     7     5
 0.0000000002     2     8     8     1
 -0.5307595808     2     8     8     2
 -0.0000000001     2     8     8     3
 0.0119516725     2     8     8     6
 0.0000000003     2     8     8     7
 0.0039097483     2     8     8    10
 0.0000000003     2     8     9     1
 -0.0000000004     2     8     9     2
 0.0000000016     2     8     9     3
 -0.0000000016     2     8     9     6
 0.0000000005     2     8     9     7
 -0.0000000020     2     8     9    10
 0.0000000020     2     8    10     4
 0.0000000011     2     8    10     5
 0.0007507992     2     9     1     4
 0.0000763832     2     9     1     5
 -0.0066795618     2     9     3     4
 -0.0006795511     2     9     3     5
 -0.1384001567     2     9     4     1
 -0.0000000045     2     9     4     2
 -0.0229994614     2     9     4     3
 0.0000000004     2     9     4     6
 0.0016930482     2     9     4     7
 0.0000000005     2     9     4    10
 -0.0140802620     2     9     5     1
 0.0000000009     2     9     5     2
 -0.0023398699     2     9     5     3
 -0.0000000002     2     9     5     6
 0.0001722438     2     9     5     7
 -0.0000000005     2     9     5    10
 0.0000000001     2     9     6     5
 0.0017039134     2     9     7     4
 0.0001733492     2     9     7     5
 0.0000000003     2     9     8     1
 -0.0000000004     2     9     8     2
 0.0000000016     2     9     8     3
 -0.0000000016     2     9     8     6
 0.0000000005     2     9     8     7
 -0.0000000020     2     9     8    10
 0.0000000004     2     9     9     1
 -0.5307595811     2     9     9     2
 0.0000000011     2     9     9     3
 0.0119516713     2     9     9     6
 0.0000000007     2     9     9     7
 0.0039097468     2     9     9    10
 0.0000000010     2     9    10     4
 -0.0000000021     2     9    10     5
 -0.0044753860     2    10     1     1
 -0.0000000003     2    10     1     2
 0.0003146201     2    10     1     3
 0.0000000001     2    10     1     6
 -0.0004252464     2    10     1     7
 0.0361530396     2    10     3     1
 0.0000000015     2    10     3     2
 -0.0072474815     2    10     3     3
 -0.0000000008     2    10     3     6
 0.0034400066     2    10     3     7
 -0.0084020879     2    10     4     4
 0.0000000002     2    10     4     5
 -0.0000000005     2    10     4     8
 -0.0000000005     2    10     4     9
 0.0000000002     2    10     5     4
 -0.0084020875     2    10     5     5
 0.0000000001     2    10     5     8
 0.0000000005     2    10     5     9
 -0.0000000084     2    10     6     1
 -0.1033108732     2    10     6     2
 -0.0000000071     2    10     6     3
 0.0000870412     2    10     6     6
 -0.0000000001     2    10     6     7
 0.0390094348     2    10     7     1
 -0.0000000300     2    10     7     2
 0.0085131468     2    10     7     3
 0.0000000072     2    10     7     6
 -0.0060196424     2    10     7     7
 0.0000000020     2    10     8     4
 0.0000000016     2    10     8     5
 -0.0039097483     2    10     8     8
 0.0000000020     2    10     8     9
 0.0000000005     2    10     9     4
 -0.0000000021     2    10     9     5
 0.0000000020     2    10     9     8
 -0.0039097468     2    10     9     9
 -0.0000000012     2    10    10     1
 -0.3106194401     2    10    10     2
 0.0000001263     2    10    10     3
 -0.0004570028     2    10    10     6
 0.0000000472     2    10    10     7
 0.0000000001     3     1     1     2
 -0.9127271175     3     1     1     3
 -0.0000000054     3     1     1     6
 0.1352996378     3     1     1     7
 0.0000000015     3     1     1    10
 -0.0213981794     3     1     2     2
 0.0000000025     3     1     2     3
 0.1014496857     3     1     2     6
 0.0000000006     3     1     2     7
 0.0361530396     3     1     2    10
 0.0198968055     3     1     4     4
 -0.0000000003     3     1     4     5
 0.0000000002     3     1     4     8
 0.0000000006     3     1     4     9
 -0.0000000003     3     1     5     4
 0.0198968050     3     1     5     5
 -0.0000000005     3     1     5     8
 0.0009663386     3     1     6     2
 0.0000000009     3     1     6     3
 0.0126902733     3     1     6     6
 -0.0000000010     3     1     6     7
 0.0024681283     3     1     6    10
 0.0000000011     3     1     7     2
 -0.0302435595     3     1     7     3
 -0.0000000011     3     1     7     6
 0.0275093588     3     1     7     7
 0.0000000065     3     1     7    10