&FCI NORB= 10,NELEC= 14,MS2=0,
 ORBSYM=1,1,1,1,1,1,1,1,1,1
 ISYM=1,
&END
 0.5295440135     1     1     2     2
 0.0099813304     1     1     2     4
 -0.0026557864     1     1     2    10
 0.8541211141     1     1     3     3
 0.0000000001     1     1     3     4
 -0.1184019246     1     1     3     7
 -0.0000000005     1     1     3    10
 0.0099813304     1     1     4     2
 0.0000000001     1     1     4     3
 0.6430558957     1     1     4     4
 0.0000000014     1     1     4     7
 -0.0990081565     1     1     4    10
 0.7124513225     1     1     5     5
 -0.0000000005     1     1     5     8
 0.0000000024     1     1     5     9
 0.7124513225     1     1     6     6
 0.0000000037     1     1     6     8
 0.0000000001     1     1     6     9
 -0.1184019246     1     1     7     3
 0.0000000014     1     1     7     4
 0.6876466866     1     1     7     7
 -0.0000000053     1     1     7    10
 -0.0000000005     1     1     8     5
 0.0000000037     1     1     8     6
 0.5612608496     1     1     8     8
 0.0000000024     1     1     9     5
 0.0000000001     1     1     9     6
 0.5612608496     1     1     9     9
 -0.0026557864     1     1    10     2
 -0.0000000005     1     1    10     3
 -0.0990081565     1     1    10     4
 -0.0000000053     1     1    10     7
 0.3093177496     1     1    10    10
 -0.5295440135     1     2     2     1
 -0.0148513240     1     2     2     3
 0.0209465096     1     2     2     7
 0.0000000002     1     2     2    10
 -0.0000000014     1     2     3     3
 -0.1208877308     1     2     3     4
 -0.0000000007     1     2     3     7
 0.0459425949     1     2     3    10
 -0.0099813304     1     2     4     1
 -0.1214640938     1     2     4     3
 0.0000000002     1     2     4     4
 -0.2319599461     1     2     4     7
 0.0000000018     1     2     4    10
 -0.0000000009     1     2     5     5
 0.0590117080     1     2     5     8
 0.1491711288     1     2     5     9
 -0.0000000010     1     2     6     6
 -0.1491711289     1     2     6     8
 0.0590117080     1     2     6     9
 -0.0000000008     1     2     7     3
 -0.2327622441     1     2     7     4
 -0.0000000009     1     2     7     7
 0.0310285805     1     2     7    10
 0.0587826138     1     2     8     5
 -0.1485920196     1     2     8     6
 0.0000000001     1     2     8     8
 -0.0000000001     1     2     8     9
 0.1485920196     1     2     9     5
 0.0587826138     1     2     9     6
 -0.0000000001     1     2     9     8
 -0.0000000003     1     2     9     9
 0.0026557864     1     2    10     1
 0.0460566916     1     2    10     3
 0.0000000017     1     2    10     4
 0.0308000711     1     2    10     7
 -0.0000000007     1     2    10    10
 0.0148513240     1     3     2     2
 0.0005743166     1     3     2     4
 -0.0001402266     1     3     2    10
 -0.8541211141     1     3     3     1
 0.0000000014     1     3     3     2
 -0.0000000009     1     3     3     4
 0.0259387477     1     3     3     7
 -0.0000000003     1     3     3    10
 -0.0000000001     1     3     4     1
 0.1214640938     1     3     4     2
 -0.0110086910     1     3     4     4
 0.0000000023     1     3     4     7
 0.0020639720     1     3     4    10
 -0.0185139157     1     3     5     5
 0.0000000001     1     3     5     6
 -0.0000000005     1     3     5     9
 0.0000000001     1     3     6     5
 -0.0185139161     1     3     6     6
 -0.0000000004     1     3     6     8
 -0.0000000001     1     3     6     9
 0.1184019246     1     3     7     1
 0.0000000008     1     3     7     2
 0.0000000025     1     3     7     4
 -0.0259437537     1     3     7     7
 0.0000000050     1     3     7    10
 0.0000000001     1     3     8     5
 -0.0000000009     1     3     8     6
 -0.0111978767     1     3     8     8
 -0.0000000001     1     3     8     9
 -0.0000000002     1     3     9     5
 0.0000000001     1     3     9     6
 -0.0000000001     1     3     9     8
 -0.0111978771     1     3     9     9
 0.0000000005     1     3    10     1
 -0.0460566916     1     3    10     2
 0.0014147456     1     3    10     4
 0.0000000052     1     3    10     7
 -0.0017530960     1     3    10    10
 -0.0099813304     1     4     2     1
 -0.0005743166     1     4     2     3
 0.0008016544     1     4     2     7
 -0.0000000001     1     4     2    10
 -0.0000000001     1     4     3     1
 0.1208877308     1     4     3     2
 0.0000000009     1     4     3     3
 0.0004471143     1     4     3    10
 -0.6430558957     1     4     4     1
 -0.0000000002     1     4     4     2
 0.0110086910     1     4     4     3
 -0.0019479693     1     4     4     7
 0.0000000007     1     4     5     5
 0.0000000005     1     4     5     6
 0.0033392644     1     4     5     8
 0.0084410679     1     4     5     9
 0.0000000005     1     4     6     5
 -0.0000000013     1     4     6     6
 -0.0084410679     1     4     6     8
 0.0033392644     1     4     6     9
 -0.0000000014     1     4     7     1
 0.2327622441     1     4     7     2
 -0.0000000025     1     4     7     3
 0.0000000007     1     4     7     7
 -0.0001354010     1     4     7    10
 0.0041307472     1     4     8     5
 -0.0104417961     1     4     8     6
 0.0000000009     1     4     8     8
 -0.0000000003     1     4     8     9
 0.0104417962     1     4     9     5
 0.0041307472     1     4     9     6
 -0.0000000003     1     4     9     8
 -0.0000000012     1     4     9     9
 0.0990081565     1     4    10     1
 -0.0000000017     1     4    10     2
 -0.0014147456     1     4    10     3
 0.0001212461     1     4    10     7
 0.0000000094     1     4    10    10
 0.0002165952     1     5     2     8
 0.0005475141     1     5     2     9
 -0.0000000001     1     5     3     8
 -0.0000000001     1     5     3     9
 -0.0011951491     1     5     4     8
 -0.0030211250     1     5     4     9
 -0.7124513225     1     5     5     1
 0.0000000009     1     5     5     2
 0.0185139157     1     5     5     3
 -0.0000000007     1     5     5     4
 0.0169859080     1     5     5     7
 0.0000000011     1     5     5    10
 -0.0000000001     1     5     6     3
 -0.0000000005     1     5     6     4
 0.0000000004     1     5     6    10
 0.0000000002     1     5     7     8
 0.0000000004     1     5     7     9
 0.0000000005     1     5     8     1
 -0.0587826138     1     5     8     2
 -0.0000000001     1     5     8     3
 -0.0041307472     1     5     8     4
 0.0000000001     1     5     8     7
 0.0017576143     1     5     8    10
 -0.0000000024     1     5     9     1
 -0.1485920196     1     5     9     2
 0.0000000002     1     5     9     3
 -0.0104417962     1     5     9     4
 0.0000000002     1     5     9     7
 0.0044429373     1     5     9    10
 0.0002640498     1     5    10     8
 0.0006674709     1     5    10     9
 -0.0005475141     1     6     2     8
 0.0002165952     1     6     2     9
 0.0000000002     1     6     3     8
 -0.0000000001     1     6     3     9
 0.0030211249     1     6     4     8
 -0.0011951491     1     6     4     9
 -0.0000000001     1     6     5     3
 -0.0000000005     1     6     5     4
 0.0000000004     1     6     5    10
 -0.7124513225     1     6     6     1
 0.0000000010     1     6     6     2
 0.0185139161     1     6     6     3
 0.0000000013     1     6     6     4
 0.0169859079     1     6     6     7
 -0.0000000006     1     6     6    10
 -0.0000000003     1     6     7     8
 0.0000000002     1     6     7     9
 -0.0000000037     1     6     8     1
 0.1485920196     1     6     8     2
 0.0000000009     1     6     8     3
 0.0104417961     1     6     8     4
 0.0000000001     1     6     8     7
 -0.0044429373     1     6     8    10
 -0.0000000001     1     6     9     1
 -0.0587826138     1     6     9     2
 -0.0000000001     1     6     9     3
 -0.0041307472     1     6     9     4
 0.0017576143     1     6     9    10
 -0.0006674710     1     6    10     8
 0.0002640498     1     6    10     9
 -0.0209465096     1     7     2     2
 -0.0008016544     1     7     2     4
 0.0002195171     1     7     2    10
 0.1184019246     1     7     3     1
 0.0000000007     1     7     3     2
 -0.0259387477     1     7     3     3
 0.0000000006     1     7     3    10
 -0.0000000014     1     7     4     1
 0.2319599461     1     7     4     2
 -0.0000000023     1     7     4     3
 0.0019479693     1     7     4     4
 -0.0001060895     1     7     4    10
 -0.0169859080     1     7     5     5
 0.0000000001     1     7     5     8
 0.0000000002     1     7     5     9
 -0.0169859079     1     7     6     6
 -0.0000000005     1     7     6     8
 0.0000000002     1     7     6     9
 -0.6876466866     1     7     7     1
 0.0000000009     1     7     7     2
 0.0259437537     1     7     7     3
 -0.0000000007     1     7     7     4
 -0.0000000020     1     7     7    10
 -0.0000000001     1     7     8     5
 -0.0000000001     1     7     8     6
 -0.0072658946     1     7     8     8
 -0.0000000002     1     7     9     5
 -0.0072658946     1     7     9     9
 0.0000000053     1     7    10     1
 -0.0308000711     1     7    10     2
 -0.0000000052     1     7    10     3
 -0.0001212461     1     7    10     4
 0.0013920858     1     7    10    10
 -0.0002165952     1     8     2     5
 0.0005475141     1     8     2     6
 0.0000000001     1     8     3     5
 -0.0000000002     1     8     3     6
 0.0011951491     1     8     4     5
 -0.0030211249     1     8     4     6
 0.0000000005     1     8     5     1
 -0.0590117080     1     8     5     2
 -0.0033392644     1     8     5     4
 -0.0000000001     1     8     5     7
 0.0015626758     1     8     5    10
 -0.0000000037     1     8     6     1
 0.1491711289     1     8     6     2
 0.0000000004     1     8     6     3
 0.0084410679     1     8     6     4
 0.0000000005     1     8     6     7
 -0.0039501674     1     8     6    10
 -0.0000000002     1     8     7     5
 0.0000000003     1     8     7     6
 -0.5612608496     1     8     8     1
 -0.0000000001     1     8     8     2
 0.0111978767     1     8     8     3
 -0.0000000009     1     8     8     4
 0.0072658946     1     8     8     7
 -0.0000000023     1     8     8    10
 0.0000000001     1     8     9     2
 0.0000000001     1     8     9     3
 0.0000000003     1     8     9     4
 -0.0000000003     1     8     9    10
 -0.0002640498     1     8    10     5
 0.0006674710     1     8    10     6
 -0.0005475141     1     9     2     5
 -0.0002165952     1     9     2     6
 0.0000000001     1     9     3     5
 0.0000000001     1     9     3     6
 0.0030211250     1     9     4     5
 0.0011951491     1     9     4     6
 -0.0000000024     1     9     5     1
 -0.1491711288     1     9     5     2
 0.0000000005     1     9     5     3
 -0.0084410679     1     9     5     4
 -0.0000000002     1     9     5     7
 0.0039501674     1     9     5    10
 -0.0000000001     1     9     6     1
 -0.0590117080     1     9     6     2
 0.0000000001     1     9     6     3
 -0.0033392644     1     9     6     4
 -0.0000000002     1     9     6     7
 0.0015626758     1     9     6    10
 -0.0000000004     1     9     7     5
 -0.0000000002     1     9     7     6
 0.0000000001     1     9     8     2
 0.0000000001     1     9     8     3
 0.0000000003     1     9     8     4
 -0.0000000003     1     9     8    10
 -0.5612608496     1     9     9     1
 0.0000000003     1     9     9     2
 0.0111978771     1     9     9     3
 0.0000000012     1     9     9     4
 0.0072658946     1     9     9     7
 -0.0000000040     1     9     9    10
 -0.0006674709     1     9    10     5
 -0.0002640498     1     9    10     6
 0.0026557864     1    10     2     1
 -0.0000000002     1    10     2     2
 0.0001402266     1    10     2     3
 0.0000000001     1    10     2     4
 -0.0002195171     1    10     2     7
 0.0000000005     1    10     3     1
 -0.0459425949     1    10     3     2
 0.0000000003     1    10     3     3
 -0.0004471143     1    10     3     4
 -0.0000000006     1    10     3     7
 0.0990081565     1    10     4     1
 -0.0000000018     1    10     4     2
 -0.0020639720     1    10     4     3
 0.0001060895     1    10     4     7
 -0.0000000011     1    10     5     5
 -0.0000000004     1    10     5     6
 -0.0015626758     1    10     5     8
 -0.0039501674     1    10     5     9
 -0.0000000004     1    10     6     5
 0.0000000006     1    10     6     6
 0.0039501674     1    10     6     8
 -0.0015626758     1    10     6     9
 0.0000000053     1    10     7     1
 -0.0310285805     1    10     7     2
 -0.0000000050     1    10     7     3
 0.0001354010     1    10     7     4
 0.0000000020     1    10     7     7
 -0.0017576143     1    10     8     5
 0.0044429373     1    10     8     6
 0.0000000023     1    10     8     8
 0.0000000003     1    10     8     9
 -0.0044429373     1    10     9     5
 -0.0017576143     1    10     9     6
 0.0000000003     1    10     9     8
 0.0000000040     1    10     9     9
 -0.3093177496     1    10    10     1
 0.0000000007     1    10    10     2
 0.0017530960     1    10    10     3
 -0.0000000094     1    10    10     4
 -0.0013920858     1    10    10     7
 -0.5295440135     2     1     1     2
 -0.0099813304     2     1     1     4
 0.0026557864     2     1     1    10
 -0.0148513240     2     1     3     2
 -0.0000000014     2     1     3     3
 -0.1214640938     2     1     3     4
 -0.0000000008     2     1     3     7
 0.0460566916     2     1     3    10
 -0.1208877308     2     1     4     3
 0.0000000002     2     1     4     4
 -0.2327622441     2     1     4     7
 0.0000000017     2     1     4    10
 -0.0000000009     2     1     5     5
 0.0587826138     2     1     5     8
 0.1485920196     2     1     5     9
 -0.0000000010     2     1     6     6
 -0.1485920196     2     1     6     8
 0.0587826138     2     1     6     9
 0.0209465096     2     1     7     2
 -0.0000000007     2     1     7     3
 -0.2319599461     2     1     7     4
 -0.0000000009     2     1     7     7
 0.0308000711     2     1     7    10
 0.0590117080     2     1     8     5
 -0.1491711289     2     1     8     6
 0.0000000001     2     1     8     8
 -0.0000000001     2     1     8     9
 0.1491711288     2     1     9     5
 0.0590117080     2     1     9     6
 -0.0000000001     2     1     9     8
 -0.0000000003     2     1     9     9
 0.0000000002     2     1    10     2
 0.0459425949     2     1    10     3
 0.0000000018     2     1    10     4
 0.0310285805     2     1    10     7
 -0.0000000007     2     1    10    10
 0.5295440135     2     2     1     1
 0.0148513240     2     2     1     3
 -0.0209465096     2     2     1     7
 -0.0000000002     2     2     1    10
 0.0148513240     2     2     3     1
 0.8545027124     2     2     3     3
 0.0000000001     2     2     3     4
 -0.1193622959     2     2     3     7
 -0.0000000006     2     2     3    10
 0.0000000001     2     2     4     3
 0.6428095932     2     2     4     4
 0.0000000014     2     2     4     7
 -0.0989034949     2     2     4    10
 0.7132932040     2     2     5     5
 -0.0000000005     2     2     5     8
 0.0000000023     2     2     5     9
 0.7132932039     2     2     6     6
 0.0000000037     2     2     6     8
 0.0000000001     2     2     6     9
 -0.0209465096     2     2     7     1
 -0.1193622959     2     2     7     3
 0.0000000014     2     2     7     4
 0.6893813279     2     2     7     7
 -0.0000000060     2     2     7    10
 -0.0000000005     2     2     8     5
 0.0000000037     2     2     8     6
 0.5609431126     2     2     8     8
 0.0000000023     2     2     9     5
 0.0000000001     2     2     9     6
 0.5609431127     2     2     9     9
 -0.0000000002     2     2    10     1
 -0.0000000006     2     2    10     3
 -0.0989034949     2     2    10     4
 -0.0000000060     2     2    10     7
 0.3093099041     2     2    10    10
 -0.0148513240     2     3     1     2
 -0.0005743166     2     3     1     4
 0.0001402266     2     3     1    10
 0.0000000014     2     3     3     1
 -0.8545027124     2     3     3     2
 -0.0162401960     2     3     3     4
 -0.0000000001     2     3     3     7
 0.0047715631     2     3     3    10
 0.1208877308     2     3     4     1
 -0.0000000001     2     3     4     2
 -0.0000000013     2     3     4     4
 0.0203142202     2     3     4     7
 0.0000000015     2     3     4    10
 -0.0000000001     2     3     5     5
 -0.0000000004     2     3     5     6
 -0.0082873748     2     3     5     8
 -0.0209490133     2     3     5     9
 -0.0000000004     2     3     6     5
 0.0000000016     2     3     6     6
 0.0209490132     2     3     6     8
 -0.0082873748     2     3     6     9
 0.0000000007     2     3     7     1
 0.1193622959     2     3     7     2
 0.0269985953     2     3     7     4
 -0.0000000008     2     3     7     7
 -0.0061970518     2     3     7    10
 -0.0053368076     2     3     8     5
 0.0134905027     2     3     8     6
 -0.0000000011     2     3     8     8
 0.0000000003     2     3     8     9
 -0.0134905028     2     3     9     5
 -0.0053368076     2     3     9     6
 0.0000000003     2     3     9     8
 0.0000000011     2     3     9     9
 -0.0459425949     2     3    10     1
 0.0000000006     2     3    10     2
 0.0000000007     2     3    10     4
 -0.0029634587     2     3    10     7
 -0.0000000176     2     3    10    10
 0.0099813304     2     4     1     1
 0.0005743166     2     4     1     3
 -0.0008016544     2     4     1     7
 0.0000000001     2     4     1    10
 0.1214640938     2     4     3     1
 -0.0000000001     2     4     3     2
 0.0162401960     2     4     3     3
 -0.0066649099     2     4     3     7
 0.0000000005     2     4     3    10
 -0.0000000002     2     4     4     1
 -0.6428095932     2     4     4     2
 0.0000000013     2     4     4     3
 -0.0000000018     2     4     4     7
 0.0001717644     2     4     4    10
 0.0210255211     2     4     5     5
 -0.0000000002     2     4     5     8
 0.0000000002     2     4     5     9
 0.0210255213     2     4     6     6
 0.0000000006     2     4     6     8
 -0.0000000001     2     4     6     9
 0.2319599461     2     4     7     1
 -0.0000000014     2     4     7     2
 -0.0269985953     2     4     7     3
 0.0219221346     2     4     7     7
 -0.0000000034     2     4     7    10
 -0.0000000002     2     4     8     5
 0.0000000010     2     4     8     6
 0.0143890407     2     4     8     8
 0.0000000001     2     4     9     5
 -0.0000000001     2     4     9     6
 0.0143890409     2     4     9     9
 -0.0000000018     2     4    10     1
 0.0989034949     2     4    10     2
 -0.0000000007     2     4    10     3
 -0.0000000022     2     4    10     7
 -0.0004425421     2     4    10    10
 -0.0002165952     2     5     1     8
 -0.0005475141     2     5     1     9
 -0.0023107940     2     5     3     8
 -0.0058412773     2     5     3     9
 -0.0000000001     2     5     4     9
 0.0000000009     2     5     5     1
 -0.7132932040     2     5     5     2
 0.0000000001     2     5     5     3
 -0.0210255211     2     5     5     4
 0.0000000005     2     5     5     7
 0.0076685559     2     5     5    10
 0.0000000004     2     5     6     3
 0.0000000002     2     5     6     7
 0.0005742453     2     5     7     8
 0.0014515902     2     5     7     9
 -0.0590117080     2     5     8     1
 0.0000000005     2     5     8     2
 0.0053368076     2     5     8     3
 0.0000000002     2     5     8     4
 0.0004780392     2     5     8     7
 0.0000000020     2     5     8    10
 -0.1491711288     2     5     9     1
 -0.0000000023     2     5     9     2
 0.0134905028     2     5     9     3
 -0.0000000001     2     5     9     4
 0.0012083983     2     5     9     7
 0.0000000057     2     5     9    10
 0.0000000023     2     5    10     8
 0.0000000059     2     5    10     9
 0.0005475141     2     6     1     8
 -0.0002165952     2     6     1     9
 0.0058412773     2     6     3     8
 -0.0023107940     2     6     3     9
 0.0000000004     2     6     5     3
 0.0000000002     2     6     5     7
 0.0000000010     2     6     6     1
 -0.7132932039     2     6     6     2
 -0.0000000016     2     6     6     3
 -0.0210255213     2     6     6     4
 -0.0000000002     2     6     6     7
 0.0076685561     2     6     6    10
 -0.0014515902     2     6     7     8
 0.0005742453     2     6     7     9
 0.1491711289     2     6     8     1
 -0.0000000037     2     6     8     2
 -0.0134905027     2     6     8     3
 -0.0000000010     2     6     8     4
 -0.0012083983     2     6     8     7
 -0.0000000047     2     6     8    10
 -0.0590117080     2     6     9     1
 -0.0000000001     2     6     9     2
 0.0053368076     2     6     9     3
 0.0000000001     2     6     9     4
 0.0004780392     2     6     9     7
 0.0000000021     2     6     9    10
 -0.0000000058     2     6    10     8
 0.0000000024     2     6    10     9
 0.0209465096     2     7     1     2
 0.0008016544     2     7     1     4
 -0.0002195171     2     7     1    10
 0.0000000008     2     7     3     1
 0.1193622959     2     7     3     2
 0.0000000001     2     7     3     3
 0.0066649099     2     7     3     4
 -0.0028253142     2     7     3    10
 0.2327622441     2     7     4     1
 -0.0000000014     2     7     4     2
 -0.0203142202     2     7     4     3
 0.0000000018     2     7     4     4
 -0.0000000013     2     7     4    10
 -0.0000000005     2     7     5     5
 -0.0000000002     2     7     5     6
 0.0002777929     2     7     5     8
 0.0007022111     2     7     5     9
 -0.0000000002     2     7     6     5
 0.0000000002     2     7     6     6
 -0.0007022112     2     7     6     8
 0.0002777929     2     7     6     9
 0.0000000009     2     7     7     1
 -0.6893813279     2     7     7     2
 0.0000000008     2     7     7     3
 -0.0219221346     2     7     7     4
 0.0054009883     2     7     7    10
 -0.0004780392     2     7     8     5
 0.0012083983     2     7     8     6
 -0.0000000001     2     7     8     8
 0.0000000001     2     7     8     9
 -0.0012083983     2     7     9     5
 -0.0004780392     2     7     9     6
 0.0000000001     2     7     9     8
 0.0000000007     2     7     9     9
 -0.0310285805     2     7    10     1
 0.0000000060     2     7    10     2
 0.0029634587     2     7    10     3
 0.0000000022     2     7    10     4
 0.0000000022     2     7    10    10
 0.0002165952     2     8     1     5
 -0.0005475141     2     8     1     6
 0.0023107940     2     8     3     5
 -0.0058412773     2     8     3     6
 -0.0587826138     2     8     5     1
 0.0000000005     2     8     5     2
 0.0082873748     2     8     5     3
 0.0000000002     2     8     5     4
 -0.0002777929     2     8     5     7
 -0.0000000003     2     8     5    10
 0.1485920196     2     8     6     1
 -0.0000000037     2     8     6     2
 -0.0209490132     2     8     6     3
 -0.0000000006     2     8     6     4
 0.0007022112     2     8     6     7
 0.0000000011     2     8     6    10
 -0.0005742453     2     8     7     5
 0.0014515902     2     8     7     6
 -0.0000000001     2     8     8     1
 -0.5609431126     2     8     8     2
 0.0000000011     2     8     8     3
 -0.0143890407     2     8     8     4
 0.0000000001     2     8     8     7
 0.0050008271     2     8     8    10
 0.0000000001     2     8     9     1
 -0.0000000003     2     8     9     3
 -0.0000000001     2     8     9     7
 -0.0000000023     2     8    10     5
 0.0000000058     2     8    10     6
 0.0005475141     2     9     1     5
 0.0002165952     2     9     1     6
 0.0058412773     2     9     3     5
 0.0023107940     2     9     3     6
 0.0000000001     2     9     4     5
 -0.1485920196     2     9     5     1
 -0.0000000023     2     9     5     2
 0.0209490133     2     9     5     3
 -0.0000000002     2     9     5     4
 -0.0007022111     2     9     5     7
 -0.0000000005     2     9     5    10
 -0.0587826138     2     9     6     1
 -0.0000000001     2     9     6     2
 0.0082873748     2     9     6     3
 0.0000000001     2     9     6     4
 -0.0002777929     2     9     6     7
 -0.0000000003     2     9     6    10
 -0.0014515902     2     9     7     5
 -0.0005742453     2     9     7     6
 0.0000000001     2     9     8     1
 -0.0000000003     2     9     8     3
 -0.0000000001     2     9     8     7
 0.0000000003     2     9     9     1
 -0.5609431127     2     9     9     2
 -0.0000000011     2     9     9     3
 -0.0143890409     2     9     9     4
 -0.0000000007     2     9     9     7
 0.0050008273     2     9     9    10
 -0.0000000059     2     9    10     5
 -0.0000000024     2     9    10     6
 -0.0026557864     2    10     1     1
 0.0000000002     2    10     1     2
 -0.0001402266     2    10     1     3
 -0.0000000001     2    10     1     4
 0.0002195171     2    10     1     7
 -0.0460566916     2    10     3     1
 0.0000000006     2    10     3     2
 -0.0047715631     2    10     3     3
 -0.0000000005     2    10     3     4
 0.0028253142     2    10     3     7
 -0.0000000017     2    10     4     1
 0.0989034949     2    10     4     2
 -0.0000000015     2    10     4     3
 -0.0001717644     2    10     4     4
 0.0000000013     2    10     4     7
 -0.0076685559     2    10     5     5
 0.0000000003     2    10     5     8
 0.0000000005     2    10     5     9
 -0.0076685561     2    10     6     6
 -0.0000000011     2    10     6     8
 0.0000000003     2    10     6     9
 -0.0308000711     2    10     7     1
 0.0000000060     2    10     7     2
 0.0061970518     2    10     7     3
 0.0000000034     2    10     7     4
 -0.0054009883     2    10     7     7
 -0.0000000020     2    10     8     5
 0.0000000047     2    10     8     6
 -0.0050008271     2    10     8     8
 -0.0000000057     2    10     9     5
 -0.0000000021     2    10     9     6
 -0.0050008273     2    10     9     9
 0.0000000007     2    10    10     1
 -0.3093099041     2    10    10     2
 0.0000000176     2    10    10     3
 0.0004425421     2    10    10     4
 -0.0000000022     2    10    10     7
 -0.8541211141     3     1     1     3
 -0.0000000001     3     1     1     4
 0.1184019246     3     1     1     7
 0.0000000005     3     1     1    10
 0.0148513240     3     1     2     2
 0.0000000014     3     1     2     3
 0.1214640938     3     1     2     4
 0.0000000008     3     1     2     7
 -0.0460566916     3     1     2    10
 0.0005743166     3     1     4     2
 -0.0000000009     3     1     4     3
 -0.0110086910     3     1     4     4
 0.0000000025     3     1     4     7
 0.0014147456     3     1     4    10
 -0.0185139157     3     1     5     5
 0.0000000001     3     1     5     6
 0.0000000001     3     1     5     8
 -0.0000000002     3     1     5     9
 0.0000000001     3     1     6     5
 -0.0185139161     3     1     6     6
 -0.0000000009     3     1     6     8
 0.0000000001     3     1     6     9
 0.0259387477     3     1     7     3
 0.0000000023     3     1     7     4
 -0.0259437537     3     1     7     7
 0.0000000052     3     1     7    10
 -0.0000000004     3     1     8     6
 -0.0111978767     3     1     8     8
 -0.0000000001     3     1     8     9
 -0.0000000005     3     1     9     5
 -0.0000000001     3     1     9     6
 -0.0000000001     3     1     9     8
 -0.0111978771     3     1     9     9
 -0.0001402266     3     1    10     2
 -0.0000000003     3     1    10     3
 0.0020639720     3     1    10     4
 0.0000000050     3     1    10     7
 -0.0017530960     3     1    10    10
 0.0000000014     3     2     1     3
 0.1208877308     3     2     1     4
 0.0000000007     3     2     1     7
 -0.0459425949     3     2     1    10
 -0.0148513240     3     2     2     1
 -0.8545027124     3     2     2     3
 -0.0000000001     3     2     2     4
 0.1193622959     3     2     2     7
 0.0000000006     3     2     2    10
 -0.0005743166     3     2     4     1
 -0.0162401960     3     2     4     3
 -0.0000000013     3     2     4     4
 0.0269985953     3     2     4     7
 0.0000000007     3     2     4    10
 -0.0000000001     3     2     5     5
 -0.0000000004     3     2     5     6
 -0.0053368076     3     2     5     8
 -0.0134905028     3     2     5     9
 -0.0000000004     3     2     6     5
 0.0000000016     3     2     6     6
 0.0134905027     3     2     6     8
 -0.0053368076     3     2     6     9
 -0.0000000001     3     2     7     3
 0.0203142202     3     2     7     4
 -0.0000000008     3     2     7     7
 -0.0029634587     3     2     7    10
 -0.0082873748     3     2     8     5
 0.0209490132     3     2     8     6
 -0.0000000011     3     2     8     8
 0.0000000003     3     2     8     9
 -0.0209490133     3     2     9     5
 -0.0082873748     3     2     9     6
 0.0000000003     3     2     9     8
 0.0000000011     3     2     9     9
 0.0001402266     3     2    10     1
 0.0047715631     3     2    10     3
 0.0000000015     3     2    10     4
 -0.0061970518     3     2    10     7
 -0.0000000176     3     2    10    10
 0.8541211141     3     3     1     1
 -0.0000000014     3     3     1     2
 0.0000000009     3     3     1     4
 -0.0259387477     3     3     1     7
 0.0000000003     3     3     1    10
 -0.0000000014     3     3     2     1
 0.8545027124     3     3     2     2
 0.0162401960     3     3     2     4
 0.0000000001     3     3     2     7
 -0.0047715631     3     3     2    10
 0.0000000009     3     3     4     1
 0.0162401960     3     3     4     2
 0.4879121664     3     3     4     4
 0.0000000005     3     3     4     7
 -0.0608014647     3     3     4    10
 0.5644330542     3     3     5     5
 -0.0000000001     3     3     5     6
 -0.0000000001     3     3     5     8
 0.0000000022     3     3     5     9
 -0.0000000001     3     3     6     5