&FCI NORB= 10,NELEC= 14,MS2=0,
 ORBSYM=1,1,1,1,1,1,1,1,1,1
 ISYM=1,
&END
 0.2940056214     1     1     2     2
 0.0000000002     1     1     2     3
 -0.0011773097     1     1     2     4
 0.0000000013     1     1     2     5
 0.0054507736     1     1     2    10
 0.0000000002     1     1     3     2
 0.6070144603     1     1     3     3
 -0.0000001348     1     1     3     4
 0.0292942089     1     1     3     5
 -0.0000000437     1     1     3    10
 -0.0011773097     1     1     4     2
 -0.0000001348     1     1     4     3
 0.5995876117     1     1     4     4
 0.0000000680     1     1     4     5
 0.0531507578     1     1     4    10
 0.0000000013     1     1     5     2
 0.0292942089     1     1     5     3
 0.0000000680     1     1     5     4
 0.6054667715     1     1     5     5
 -0.0000001040     1     1     5    10
 0.5851807463     1     1     6     6
 0.0000000930     1     1     6     8
 -0.0000000747     1     1     6     9
 0.5851807463     1     1     7     7
 0.0000000747     1     1     7     8
 0.0000000930     1     1     7     9
 0.0000000930     1     1     8     6
 0.0000000747     1     1     8     7
 0.5760117955     1     1     8     8
 -0.0000000747     1     1     9     6
 0.0000000930     1     1     9     7
 0.5760117955     1     1     9     9
 0.0054507736     1     1    10     2
 -0.0000000437     1     1    10     3
 0.0531507578     1     1    10     4
 -0.0000001040     1     1    10     5
 0.6088531856     1     1    10    10
 -0.2940056214     1     2     2     1
 -0.0010761989     1     2     2     3
 -0.0000000003     1     2     2     4
 -0.0058768512     1     2     2     5
 0.0000000013     1     2     2    10
 -0.0000000002     1     2     3     1
 -0.0000000023     1     2     3     3
 0.2928669195     1     2     3     4
 0.0000000021     1     2     3     5
 0.0983971262     1     2     3    10
 0.0011773097     1     2     4     1
 0.2928873308     1     2     4     3
 -0.0000000028     1     2     4     4
 -0.1467235427     1     2     4     5
 -0.0000000002     1     2     4    10
 -0.0000000013     1     2     5     1
 0.0000000021     1     2     5     3
 -0.1467757370     1     2     5     4
 0.0000000010     1     2     5     5
 0.2422693801     1     2     5    10
 0.0000000002     1     2     6     6
 -0.2114771770     1     2     6     8
 0.1699758535     1     2     6     9
 0.0000000002     1     2     7     7
 -0.1699758536     1     2     7     8
 -0.2114771770     1     2     7     9
 -0.2113928077     1     2     8     6
 -0.1699080412     1     2     8     7
 0.0000000001     1     2     8     8
 0.1699080412     1     2     9     6
 -0.2113928077     1     2     9     7
 0.0000000001     1     2     9     9
 -0.0054507736     1     2    10     1
 0.0983529338     1     2    10     3
 -0.0000000002     1     2    10     4
 0.2420573015     1     2    10     5
 0.0000000004     1     2    10    10
 -0.0000000002     1     3     2     1
 0.0010761989     1     3     2     2
 -0.0000176420     1     3     2     4
 0.0000431740     1     3     2    10
 -0.6070144603     1     3     3     1
 0.0000000023     1     3     3     2
 0.0000000002     1     3     3     4
 -0.0065257281     1     3     3     5
 0.0000000024     1     3     3    10
 0.0000001348     1     3     4     1
 -0.2928873308     1     3     4     2
 -0.0016969182     1     3     4     4
 -0.0000000011     1     3     4     5
 0.0058480240     1     3     4    10
 -0.0292942089     1     3     5     1
 -0.0000000021     1     3     5     2
 -0.0000000013     1     3     5     4
 -0.0209191800     1     3     5     5
 0.0000000043     1     3     5    10
 -0.0191049054     1     3     6     6
 -0.0000000028     1     3     6     8
 0.0000000023     1     3     6     9
 -0.0191049054     1     3     7     7
 -0.0000000023     1     3     7     8
 -0.0000000028     1     3     7     9
 -0.0000000024     1     3     8     6
 -0.0000000019     1     3     8     7
 -0.0173338315     1     3     8     8
 0.0000000019     1     3     9     6
 -0.0000000024     1     3     9     7
 -0.0173338315     1     3     9     9
 0.0000000437     1     3    10     1
 -0.0983529338     1     3    10     2
 0.0051328819     1     3    10     4
 0.0000000036     1     3    10     5
 -0.0161182905     1     3    10    10
 0.0011773097     1     4     2     1
 0.0000000003     1     4     2     2
 0.0000176420     1     4     2     3
 0.0000516278     1     4     2     5
 0.0000001348     1     4     3     1
 -0.2928669195     1     4     3     2
 -0.0000000002     1     4     3     3
 0.0000000003     1     4     3     5
 0.0003570435     1     4     3    10
 -0.5995876117     1     4     4     1
 0.0000000028     1     4     4     2
 0.0016969182     1     4     4     3
 0.0018806939     1     4     4     5
 -0.0000000009     1     4     4    10
 -0.0000000680     1     4     5     1
 0.1467757370     1     4     5     2
 0.0000000013     1     4     5     3
 0.0000000049     1     4     5     5
 -0.0194926435     1     4     5    10
 0.0000000037     1     4     6     6
 0.0136774561     1     4     6     8
 -0.0109933247     1     4     6     9
 0.0000000037     1     4     7     7
 0.0109933247     1     4     7     8
 0.0136774561     1     4     7     9
 0.0131965329     1     4     8     6
 0.0106067803     1     4     8     7
 0.0000000031     1     4     8     8
 -0.0106067803     1     4     9     6
 0.0131965329     1     4     9     7
 0.0000000031     1     4     9     9
 -0.0531507578     1     4    10     1
 0.0000000002     1     4    10     2
 -0.0051328819     1     4    10     3
 -0.0158804464     1     4    10     5
 0.0000000015     1     4    10    10
 -0.0000000013     1     5     2     1
 0.0058768512     1     5     2     2
 -0.0000516278     1     5     2     4
 0.0002166841     1     5     2    10
 -0.0292942089     1     5     3     1
 -0.0000000021     1     5     3     2
 0.0065257281     1     5     3     3
 -0.0000000003     1     5     3     4
 0.0000000006     1     5     3    10
 -0.0000000680     1     5     4     1
 0.1467235427     1     5     4     2
 0.0000000011     1     5     4     3
 -0.0018806939     1     5     4     4
 -0.0023953785     1     5     4    10
 -0.6054667715     1     5     5     1
 -0.0000000010     1     5     5     2
 0.0209191800     1     5     5     3
 -0.0000000049     1     5     5     4
 -0.0000000008     1     5     5    10
 0.0065240526     1     5     6     6
 0.0065240526     1     5     7     7
 0.0000000002     1     5     8     6
 0.0000000002     1     5     8     7
 0.0054515798     1     5     8     8
 -0.0000000002     1     5     9     6
 0.0000000002     1     5     9     7
 0.0054515797     1     5     9     9
 0.0000001040     1     5    10     1
 -0.2420573015     1     5    10     2
 -0.0000000036     1     5    10     3
 0.0158804464     1     5    10     4
 0.0128899400     1     5    10    10
 -0.0000818838     1     6     2     8
 0.0000658145     1     6     2     9
 -0.0000000003     1     6     3     8
 0.0000000003     1     6     3     9
 -0.0002937787     1     6     4     8
 0.0002361260     1     6     4     9
 -0.0000000001     1     6     5     8
 0.0000000001     1     6     5     9
 -0.5851807463     1     6     6     1
 -0.0000000002     1     6     6     2
 0.0191049054     1     6     6     3
 -0.0000000037     1     6     6     4
 -0.0065240526     1     6     6     5
 -0.0000000003     1     6     6    10
 -0.0000000930     1     6     8     1
 0.2113928077     1     6     8     2
 0.0000000024     1     6     8     3
 -0.0131965329     1     6     8     4
 -0.0000000002     1     6     8     5
 -0.0066040369     1     6     8    10
 0.0000000747     1     6     9     1
 -0.1699080412     1     6     9     2
 -0.0000000019     1     6     9     3
 0.0106067803     1     6     9     4
 0.0000000002     1     6     9     5
 0.0053080281     1     6     9    10
 -0.0001097501     1     6    10     8
 0.0000882122     1     6    10     9
 -0.0000658145     1     7     2     8
 -0.0000818838     1     7     2     9
 -0.0000000003     1     7     3     8
 -0.0000000003     1     7     3     9
 -0.0002361260     1     7     4     8
 -0.0002937787     1     7     4     9
 -0.0000000001     1     7     5     8
 -0.0000000001     1     7     5     9
 -0.5851807463     1     7     7     1
 -0.0000000002     1     7     7     2
 0.0191049054     1     7     7     3
 -0.0000000037     1     7     7     4
 -0.0065240526     1     7     7     5
 -0.0000000003     1     7     7    10
 -0.0000000747     1     7     8     1
 0.1699080412     1     7     8     2
 0.0000000019     1     7     8     3
 -0.0106067803     1     7     8     4
 -0.0000000002     1     7     8     5
 -0.0053080281     1     7     8    10
 -0.0000000930     1     7     9     1
 0.2113928077     1     7     9     2
 0.0000000024     1     7     9     3
 -0.0131965329     1     7     9     4
 -0.0000000002     1     7     9     5
 -0.0066040369     1     7     9    10
 -0.0000882122     1     7    10     8
 -0.0001097501     1     7    10     9
 0.0000818838     1     8     2     6
 0.0000658145     1     8     2     7
 0.0000000003     1     8     3     6
 0.0000000003     1     8     3     7
 0.0002937787     1     8     4     6
 0.0002361260     1     8     4     7
 0.0000000001     1     8     5     6
 0.0000000001     1     8     5     7
 -0.0000000930     1     8     6     1
 0.2114771770     1     8     6     2
 0.0000000028     1     8     6     3
 -0.0136774561     1     8     6     4
 -0.0067138712     1     8     6    10
 -0.0000000747     1     8     7     1
 0.1699758536     1     8     7     2
 0.0000000023     1     8     7     3
 -0.0109933247     1     8     7     4
 -0.0053963081     1     8     7    10
 -0.5760117955     1     8     8     1
 -0.0000000001     1     8     8     2
 0.0173338315     1     8     8     3
 -0.0000000031     1     8     8     4
 -0.0054515798     1     8     8     5
 -0.0000000005     1     8     8    10
 0.0001097501     1     8    10     6
 0.0000882122     1     8    10     7
 -0.0000658145     1     9     2     6
 0.0000818838     1     9     2     7
 -0.0000000003     1     9     3     6
 0.0000000003     1     9     3     7
 -0.0002361260     1     9     4     6
 0.0002937787     1     9     4     7
 -0.0000000001     1     9     5     6
 0.0000000001     1     9     5     7
 0.0000000747     1     9     6     1
 -0.1699758535     1     9     6     2
 -0.0000000023     1     9     6     3
 0.0109933247     1     9     6     4
 0.0053963081     1     9     6    10
 -0.0000000930     1     9     7     1
 0.2114771770     1     9     7     2
 0.0000000028     1     9     7     3
 -0.0136774561     1     9     7     4
 -0.0067138712     1     9     7    10
 -0.5760117955     1     9     9     1
 -0.0000000001     1     9     9     2
 0.0173338315     1     9     9     3
 -0.0000000031     1     9     9     4
 -0.0054515797     1     9     9     5
 -0.0000000005     1     9     9    10
 -0.0000882122     1     9    10     6
 0.0001097501     1     9    10     7
 -0.0054507736     1    10     2     1
 -0.0000000013     1    10     2     2
 -0.0000431740     1    10     2     3
 -0.0002166841     1    10     2     5
 0.0000000437     1    10     3     1
 -0.0983971262     1    10     3     2
 -0.0000000024     1    10     3     3
 -0.0003570435     1    10     3     4
 -0.0000000006     1    10     3     5
 -0.0531507578     1    10     4     1
 0.0000000002     1    10     4     2
 -0.0058480240     1    10     4     3
 0.0000000009     1    10     4     4
 0.0023953785     1    10     4     5
 0.0000001040     1    10     5     1
 -0.2422693801     1    10     5     2
 -0.0000000043     1    10     5     3
 0.0194926435     1    10     5     4
 0.0000000008     1    10     5     5
 0.0000000003     1    10     6     6
 0.0067138712     1    10     6     8
 -0.0053963081     1    10     6     9
 0.0000000003     1    10     7     7
 0.0053963081     1    10     7     8
 0.0067138712     1    10     7     9
 0.0066040369     1    10     8     6
 0.0053080281     1    10     8     7
 0.0000000005     1    10     8     8
 -0.0053080281     1    10     9     6
 0.0066040369     1    10     9     7
 0.0000000005     1    10     9     9
 -0.6088531856     1    10    10     1
 -0.0000000004     1    10    10     2
 0.0161182905     1    10    10     3
 -0.0000000015     1    10    10     4
 -0.0128899400     1    10    10     5
 -0.2940056214     2     1     1     2
 -0.0000000002     2     1     1     3
 0.0011773097     2     1     1     4
 -0.0000000013     2     1     1     5
 -0.0054507736     2     1     1    10
 -0.0010761989     2     1     3     2
 -0.0000000023     2     1     3     3
 0.2928873308     2     1     3     4
 0.0000000021     2     1     3     5
 0.0983529338     2     1     3    10
 -0.0000000003     2     1     4     2
 0.2928669195     2     1     4     3
 -0.0000000028     2     1     4     4
 -0.1467757370     2     1     4     5
 -0.0000000002     2     1     4    10
 -0.0058768512     2     1     5     2
 0.0000000021     2     1     5     3
 -0.1467235427     2     1     5     4
 0.0000000010     2     1     5     5
 0.2420573015     2     1     5    10
 0.0000000002     2     1     6     6
 -0.2113928077     2     1     6     8
 0.1699080412     2     1     6     9
 0.0000000002     2     1     7     7
 -0.1699080412     2     1     7     8
 -0.2113928077     2     1     7     9
 -0.2114771770     2     1     8     6
 -0.1699758536     2     1     8     7
 0.0000000001     2     1     8     8
 0.1699758535     2     1     9     6
 -0.2114771770     2     1     9     7
 0.0000000001     2     1     9     9
 0.0000000013     2     1    10     2
 0.0983971262     2     1    10     3
 -0.0000000002     2     1    10     4
 0.2422693801     2     1    10     5
 0.0000000004     2     1    10    10
 0.2940056214     2     2     1     1
 0.0010761989     2     2     1     3
 0.0000000003     2     2     1     4
 0.0058768512     2     2     1     5
 -0.0000000013     2     2     1    10
 0.0010761989     2     2     3     1
 0.6070069184     2     2     3     3
 0.0000001283     2     2     3     4
 0.0293229568     2     2     3     5
 0.0000000447     2     2     3    10
 0.0000000003     2     2     4     1
 0.0000001283     2     2     4     3
 0.5995864479     2     2     4     4
 -0.0000000639     2     2     4     5
 0.0531836785     2     2     4    10
 0.0058768512     2     2     5     1
 0.0293229568     2     2     5     3
 -0.0000000639     2     2     5     4
 0.6057011832     2     2     5     5
 0.0000001136     2     2     5    10
 0.5852978422     2     2     6     6
 -0.0000000970     2     2     6     8
 0.0000000780     2     2     6     9
 0.5852978422     2     2     7     7
 -0.0000000780     2     2     7     8
 -0.0000000970     2     2     7     9
 -0.0000000970     2     2     8     6
 -0.0000000780     2     2     8     7
 0.5759302489     2     2     8     8
 0.0000000780     2     2     9     6
 -0.0000000970     2     2     9     7
 0.5759302489     2     2     9     9
 -0.0000000013     2     2    10     1
 0.0000000447     2     2    10     3
 0.0531836785     2     2    10     4
 0.0000001136     2     2    10     5
 0.6086550393     2     2    10    10
 0.0000000002     2     3     1     1
 -0.0010761989     2     3     1     2
 0.0000176420     2     3     1     4
 -0.0000431740     2     3     1    10
 0.0000000023     2     3     3     1
 -0.6070069184     2     3     3     2
 0.0012587873     2     3     3     4
 -0.0000000014     2     3     3     5
 -0.0067742063     2     3     3    10
 -0.2928669195     2     3     4     1
 -0.0000001283     2     3     4     2
 -0.0000000008     2     3     4     4
 0.0065533363     2     3     4     5
 0.0000000008     2     3     4    10
 -0.0000000021     2     3     5     1
 -0.0293229568     2     3     5     2
 0.0069643602     2     3     5     4
 -0.0000000044     2     3     5     5
 -0.0197416660     2     3     5    10
 -0.0000000050     2     3     6     6
 0.0148161220     2     3     6     8
 -0.0119085332     2     3     6     9
 -0.0000000050     2     3     7     7
 0.0119085332     2     3     7     8
 0.0148161220     2     3     7     9
 0.0126406085     2     3     8     6
 0.0101599531     2     3     8     7
 -0.0000000050     2     3     8     8
 -0.0101599531     2     3     9     6
 0.0126406085     2     3     9     7
 -0.0000000050     2     3     9     9
 -0.0983971262     2     3    10     1
 -0.0000000447     2     3    10     2
 -0.0154148137     2     3    10     5
 -0.0000000072     2     3    10    10
 -0.0011773097     2     4     1     1
 -0.0000000003     2     4     1     2
 -0.0000176420     2     4     1     3
 -0.0000516278     2     4     1     5
 -0.2928873308     2     4     3     1
 -0.0000001283     2     4     3     2
 -0.0012587873     2     4     3     3
 -0.0004484808     2     4     3     5
 0.0000000008     2     4     3    10
 0.0000000028     2     4     4     1
 -0.5995864479     2     4     4     2
 0.0000000008     2     4     4     3
 0.0000000008     2     4     4     5
 0.0023610884     2     4     4    10
 0.1467235427     2     4     5     1
 0.0000000639     2     4     5     2
 -0.0069643602     2     4     5     3
 -0.0198547858     2     4     5     5
 -0.0000000046     2     4     5    10
 -0.0197475499     2     4     6     6
 0.0000000037     2     4     6     8
 -0.0000000029     2     4     6     9
 -0.0197475499     2     4     7     7
 0.0000000029     2     4     7     8
 0.0000000037     2     4     7     9
 0.0000000035     2     4     8     6
 0.0000000028     2     4     8     7
 -0.0195926641     2     4     8     8
 -0.0000000028     2     4     9     6
 0.0000000035     2     4     9     7
 -0.0195926641     2     4     9     9
 0.0000000002     2     4    10     1
 -0.0531836785     2     4    10     2
 -0.0000000035     2     4    10     5
 -0.0210464785     2     4    10    10
 0.0000000013     2     5     1     1
 -0.0058768512     2     5     1     2
 0.0000516278     2     5     1     4
 -0.0002166841     2     5     1    10
 -0.0000000021     2     5     3     1
 -0.0293229568     2     5     3     2
 0.0000000014     2     5     3     3
 0.0004484808     2     5     3     4
 -0.0033976515     2     5     3    10
 0.1467757370     2     5     4     1
 0.0000000639     2     5     4     2
 -0.0065533363     2     5     4     3
 -0.0000000008     2     5     4     4
 -0.0000000006     2     5     4    10
 -0.0000000010     2     5     5     1
 -0.6057011832     2     5     5     2
 0.0000000044     2     5     5     3
 0.0198547858     2     5     5     4
 0.0030208721     2     5     5    10
 0.0000000014     2     5     6     6
 -0.0005172493     2     5     6     8
 0.0004157418     2     5     6     9
 0.0000000014     2     5     7     7
 -0.0004157418     2     5     7     8
 -0.0005172493     2     5     7     9
 -0.0010806717     2     5     8     6
 -0.0008685954     2     5     8     7
 0.0000000014     2     5     8     8
 0.0008685954     2     5     9     6
 -0.0010806717     2     5     9     7
 0.0000000014     2     5     9     9
 -0.2422693801     2     5    10     1
 -0.0000001136     2     5    10     2
 0.0154148137     2     5    10     3
 0.0000000035     2     5    10     4
 0.0000000033     2     5    10    10
 0.0000818838     2     6     1     8
 -0.0000658145     2     6     1     9
 0.0015469102     2     6     3     8
 -0.0012433370     2     6     3     9
 -0.0000000001     2     6     4     8
 0.0006911947     2     6     5     8
 -0.0005555513     2     6     5     9
 -0.0000000002     2     6     6     1
 -0.5852978422     2     6     6     2
 0.0000000050     2     6     6     3
 0.0197475499     2     6     6     4
 -0.0000000014     2     6     6     5
 0.0030620257     2     6     6    10
 0.2114771770     2     6     8     1
 0.0000000970     2     6     8     2
 -0.0126406085     2     6     8     3
 -0.0000000035     2     6     8     4
 0.0010806717     2     6     8     5
 -0.0000000016     2     6     8    10
 -0.1699758535     2     6     9     1
 -0.0000000780     2     6     9     2
 0.0101599531     2     6     9     3
 0.0000000028     2     6     9     4
 -0.0008685954     2     6     9     5
 0.0000000014     2     6     9    10
 0.0000658145     2     7     1     8
 0.0000818838     2     7     1     9
 0.0012433370     2     7     3     8
 0.0015469102     2     7     3     9
 -0.0000000001     2     7     4     9
 0.0005555513     2     7     5     8
 0.0006911947     2     7     5     9
 -0.0000000002     2     7     7     1
 -0.5852978422     2     7     7     2
 0.0000000050     2     7     7     3
 0.0197475499     2     7     7     4
 -0.0000000014     2     7     7     5
 0.0030620257     2     7     7    10
 0.1699758536     2     7     8     1
 0.0000000780     2     7     8     2
 -0.0101599531     2     7     8     3
 -0.0000000028     2     7     8     4
 0.0008685954     2     7     8     5
 -0.0000000014     2     7     8    10
 0.2114771770     2     7     9     1
 0.0000000970     2     7     9     2
 -0.0126406085     2     7     9     3
 -0.0000000035     2     7     9     4
 0.0010806717     2     7     9     5
 -0.0000000016     2     7     9    10
 -0.0000818838     2     8     1     6
 -0.0000658145     2     8     1     7
 -0.0015469102     2     8     3     6
 -0.0012433370     2     8     3     7
 0.0000000001     2     8     4     6
 -0.0006911947     2     8     5     6
 -0.0005555513     2     8     5     7
 0.2113928077     2     8     6     1
 0.0000000970     2     8     6     2
 -0.0148161220     2     8     6     3
 -0.0000000037     2     8     6     4
 0.0005172493     2     8     6     5
 -0.0000000018     2     8     6    10
 0.1699080412     2     8     7     1
 0.0000000780     2     8     7     2
 -0.0119085332     2     8     7     3
 -0.0000000029     2     8     7     4
 0.0004157418     2     8     7     5
 -0.0000000014     2     8     7    10
 -0.0000000001     2     8     8     1
 -0.5759302489     2     8     8     2
 0.0000000050     2     8     8     3
 0.0195926641     2     8     8     4
 -0.0000000014     2     8     8     5
 0.0051779523     2     8     8    10
 0.0000658145     2     9     1     6
 -0.0000818838     2     9     1     7
 0.0012433370     2     9     3     6
 -0.0015469102     2     9     3     7
 0.0000000001     2     9     4     7
 0.0005555513     2     9     5     6
 -0.0006911947     2     9     5     7
 -0.1699080412     2     9     6     1
 -0.0000000780     2     9     6     2
 0.0119085332     2     9     6     3
 0.0000000029     2     9     6     4
 -0.0004157418     2     9     6     5
 0.0000000014     2     9     6    10
 0.2113928077     2     9     7     1
 0.0000000970     2     9     7     2
 -0.0148161220     2     9     7     3
 -0.0000000037     2     9     7     4
 0.0005172493     2     9     7     5
 -0.0000000018     2     9     7    10
 -0.0000000001     2     9     9     1
 -0.5759302489     2     9     9     2
 0.0000000050     2     9     9     3
 0.0195926641     2     9     9     4
 -0.0000000014     2     9     9     5
 0.0051779523     2     9     9    10
 0.0054507736     2    10     1     1
 0.0000000013     2    10     1     2
 0.0000431740     2    10     1     3
 0.0002166841     2    10     1     5
 -0.0983529338     2    10     3     1
 -0.0000000447     2    10     3     2
 0.0067742063     2    10     3     3
 -0.0000000008     2    10     3     4
 0.0033976515     2    10     3     5
 0.0000000002     2    10     4     1
 -0.0531836785     2    10     4     2
 -0.0000000008     2    10     4     3
 -0.0023610884     2    10     4     4
 0.0000000006     2    10     4     5
 -0.2420573015     2    10     5     1
 -0.0000001136     2    10     5     2
 0.0197416660     2    10     5     3
 0.0000000046     2    10     5     4
 -0.0030208721     2    10     5     5
 -0.0030620257     2    10     6     6
 0.0000000018     2    10     6     8
 -0.0000000014     2    10     6     9
 -0.0030620257     2    10     7     7
 0.0000000014     2    10     7     8
 0.0000000018     2    10     7     9
 0.0000000016     2    10     8     6
 0.0000000014     2    10     8     7
 -0.0051779523     2    10     8     8
 -0.0000000014     2    10     9     6
 0.0000000016     2    10     9     7
 -0.0051779523     2    10     9     9
 -0.0000000004     2    10    10     1
 -0.6086550393     2    10    10     2
 0.0000000072     2    10    10     3
 0.0210464785     2    10    10     4
 -0.0000000033     2    10    10     5
 -0.0000000002     3     1     1     2
 -0.6070144603     3     1     1     3
 0.0000001348     3     1     1     4
 -0.0292942089     3     1     1     5
 0.0000000437     3     1     1    10
 0.0010761989     3     1     2     2
 0.0000000023     3     1     2     3
 -0.2928873308     3     1     2     4
 -0.0000000021     3     1     2     5
 -0.0983529338     3     1     2    10
 -0.0000176420     3     1     4     2
 0.0000000002     3     1     4     3
 -0.0016969182     3     1     4     4
 -0.0000000013     3     1     4     5
 0.0051328819     3     1     4    10
 -0.0065257281     3     1     5     3
 -0.0000000011     3     1     5     4
 -0.0209191800     3     1     5     5
 0.0000000036     3     1     5    10
 -0.0191049054     3     1     6     6
 -0.0000000024     3     1     6     8
 0.0000000019     3     1     6     9
 -0.0191049054     3     1     7     7
 -0.0000000019     3     1     7     8
 -0.0000000024     3     1     7     9
 -0.0000000028     3     1     8     6
 -0.0000000023     3     1     8     7
 -0.0173338315     3     1     8     8
 0.0000000023     3     1     9     6
 -0.0000000028     3     1     9     7
 -0.0173338315     3     1     9     9
 0.0000431740     3     1    10     2
 0.0000000024     3     1    10     3
 0.0058480240     3     1    10     4
 0.0000000043     3     1    10     5
 -0.0161182905     3     1    10    10
 0.0000000002     3     2     1     1
 0.0000000023     3     2     1     3
 -0.2928669195     3     2     1     4
 -0.0000000021     3     2     1     5
 -0.0983971262     3     2     1    10
 -0.0010761989     3     2     2     1
 -0.6070069184     3     2     2     3
 -0.0000001283     3     2     2     4
 -0.0293229568     3     2     2     5
 -0.0000000447     3     2     2    10
 0.0000176420     3     2     4     1
 0.0012587873     3     2     4     3
 -0.0000000008     3     2     4     4
 0.0069643602     3     2     4     5
 -0.0000000014     3     2     5     3
 0.0065533363     3     2     5     4
 -0.0000000044     3     2     5     5
 -0.0154148137     3     2     5    10
 -0.0000000050     3     2     6     6
 0.0126406085     3     2     6     8
 -0.0101599531     3     2     6     9
 -0.0000000050     3     2     7     7
 0.0101599531     3     2     7     8
 0.0126406085     3     2     7     9
 0.0148161220     3     2     8     6
 0.0119085332     3     2     8     7
 -0.0000000050     3     2     8     8
 -0.0119085332     3     2     9     6
 0.0148161220     3     2     9     7
 -0.0000000050     3     2     9     9
 -0.0000431740     3     2    10     1
 -0.0067742063     3     2    10     3
 0.0000000008     3     2    10     4
 -0.0197416660     3     2    10     5
 -0.0000000072     3     2    10    10
 0.6070144603     3     3     1     1
 -0.0000000023     3     3     1     2
 -0.0000000002     3     3     1     4
 0.0065257281     3     3     1     5
 -0.0000000024     3     3     1    10
 -0.0000000023     3     3     2     1
 0.6070069184     3     3     2     2
 -0.0012587873     3     3     2     4
 0.0000000014     3     3     2     5
 0.0067742063     3     3     2    10
 -0.0000000002     3     3     4     1
 -0.0012587873     3     3     4     2
 0.2974038102     3     3     4     4
 -0.0000000003     3     3     4     5
 0.0104787048     3     3     4    10
 0.0065257281     3     3     5     1
 0.0000000014     3     3     5     2
 -0.0000000003     3     3     5     4
 0.4058411928     3     3     5     5
 0.0000000017     3     3     5    10
 0.4052290573     3     3     6     6
 -0.0000000028     3     3     6     8
 0.0000000023     3     3     6     9
 0.4052290573     3     3     7     7
 -0.0000000023     3     3     7     8
 -0.0000000028     3     3     7     9
 -0.0000000028     3     3     8     6
 -0.0000000023     3     3     8     7
 0.4127935635     3     3     8     8
 0.0000000023     3     3     9     6
 -0.0000000028     3     3     9     7
 0.4127935635     3     3     9     9
 -0.0000000024     3     3    10     1
 0.0067742063     3     3    10     2
 0.0104787048     3     3    10     4
 0.0000000017     3     3    10     5
 0.4273662133     3     3    10    10
 -0.0000001348     3     4     1     1
 0.2928669195     3     4     1     2
 0.0000000002     3     4     1     3
 -0.0000000003     3     4     1     5
 -0.0003570435     3     4     1    10
 0.2928873308     3     4     2     1
 0.0000001283     3     4     2     2
 0.0012587873     3     4     2     3
 0.0004484808     3     4     2     5
 -0.0000000008     3     4     2    10
 0.0016969182     3     4     4     1
 0.0000000008     3     4     4     2
 -0.2974038102     3     4     4     3
 -0.0934310981     3     4     4     5
 0.0000000032     3     4     4    10
 0.0000000011     3     4     5     1
 -0.0065533363     3     4     5     2
 0.0000000003     3     4     5     3
 -0.0000000003     3     4     5     5
 0.1212931569     3     4     5    10
 0.0000000025     3     4     6     6
 -0.0882050180     3     4     6     8
 0.0708952306     3     4     6     9
 0.0000000025     3     4     7     7
 -0.0708952306     3     4     7     8
 -0.0882050180     3     4     7     9
 -0.0802012316     3     4     8     6
 -0.0644621466     3     4     8     7
 0.0000000029     3     4     8     8
 0.0644621466     3     4     9     6
 -0.0802012316     3     4     9     7