&FCI NORB= 10,NELEC= 14,MS2=0,
 ORBSYM=1,1,1,1,1,1,1,1,1,1
 ISYM=1,
&END
 0.4071783756     1     1     2     2
 -0.0044036706     1     1     2     4
 0.0031621853     1     1     2    10
 0.7185530154     1     1     3     3
 0.0779189993     1     1     3     5
 -0.0044036706     1     1     4     2
 0.6239557976     1     1     4     4
 0.0000000003     1     1     4     5
 0.0889193813     1     1     4    10
 0.0779189993     1     1     5     3
 0.0000000003     1     1     5     4
 0.6567317898     1     1     5     5
 -0.0000000005     1     1     5    10
 0.6391633176     1     1     6     6
 0.0000000001     1     1     6     7
 -0.0000000023     1     1     6     8
 -0.0000000005     1     1     6     9
 0.0000000001     1     1     7     6
 0.6391633173     1     1     7     7
 0.0000000003     1     1     7     8
 -0.0000000021     1     1     7     9
 -0.0000000023     1     1     8     6
 0.0000000003     1     1     8     7
 0.5934194870     1     1     8     8
 -0.0000000005     1     1     9     6
 -0.0000000021     1     1     9     7
 0.5934194870     1     1     9     9
 0.0031621853     1     1    10     2
 0.0889193813     1     1    10     4
 -0.0000000005     1     1    10     5
 0.3824533215     1     1    10    10
 -0.4071783756     1     2     2     1
 -0.0053490998     1     2     2     3
 -0.0116385443     1     2     2     5
 -0.0000000003     1     2     3     3
 0.1937416103     1     2     3     4
 0.1021557440     1     2     3    10
 0.0044036706     1     2     4     1
 0.1938689621     1     2     4     3
 -0.0000000002     1     2     4     4
 -0.2207843090     1     2     4     5
 -0.0000000002     1     2     4    10
 -0.0000000001     1     2     5     3
 -0.2210385593     1     2     5     4
 -0.0000000004     1     2     5     5
 0.0514019425     1     2     5    10
 -0.1414840311     1     2     6     8
 -0.1498242863     1     2     6     9
 -0.1498242862     1     2     7     8
 0.1414840309     1     2     7     9
 -0.1412753899     1     2     8     6
 -0.1496033459     1     2     8     7
 -0.1496033460     1     2     9     6
 0.1412753897     1     2     9     7
 -0.0031621853     1     2    10     1
 0.1020595098     1     2    10     3
 -0.0000000002     1     2    10     4
 0.0512312839     1     2    10     5
 -0.0000000003     1     2    10    10
 0.0053490998     1     3     2     2
 -0.0001233387     1     3     2     4
 0.0000000001     1     3     2     5
 0.0000882264     1     3     2    10
 -0.7185530154     1     3     3     1
 0.0000000003     1     3     3     2
 -0.0000000002     1     3     3     4
 -0.0160447025     1     3     3     5
 -0.1938689621     1     3     4     2
 -0.0061289004     1     3     4     4
 0.0000000002     1     3     4     5
 0.0028680496     1     3     4    10
 -0.0779189993     1     3     5     1
 0.0000000001     1     3     5     2
 0.0000000001     1     3     5     4
 -0.0233411953     1     3     5     5
 -0.0000000005     1     3     5    10
 -0.0176075761     1     3     6     6
 -0.0000000001     1     3     6     7
 0.0000000002     1     3     6     8
 -0.0000000001     1     3     7     6
 -0.0176075759     1     3     7     7
 -0.0000000001     1     3     7     8
 0.0000000003     1     3     7     9
 0.0000000002     1     3     8     6
 -0.0000000002     1     3     8     7
 -0.0148047339     1     3     8     8
 -0.0000000001     1     3     8     9
 -0.0000000001     1     3     9     6
 0.0000000004     1     3     9     7
 -0.0000000001     1     3     9     8
 -0.0148047338     1     3     9     9
 -0.1020595098     1     3    10     2
 0.0036923446     1     3    10     4
 -0.0000000003     1     3    10     5
 -0.0009485239     1     3    10    10
 0.0044036706     1     4     2     1
 0.0001233387     1     4     2     3
 0.0002545087     1     4     2     5
 -0.1937416103     1     4     3     2
 0.0000000002     1     4     3     3
 0.0000000001     1     4     3     5
 -0.0010526013     1     4     3    10
 -0.6239557976     1     4     4     1
 0.0000000002     1     4     4     2
 0.0061289004     1     4     4     3
 0.0029209828     1     4     4     5
 0.0000000003     1     4     4    10
 -0.0000000003     1     4     5     1
 0.2210385593     1     4     5     2
 -0.0000000001     1     4     5     3
 0.0000000002     1     4     5     5
 -0.0081077300     1     4     5    10
 -0.0000000001     1     4     6     6
 -0.0000000002     1     4     6     7
 0.0091583328     1     4     6     8
 0.0096982017     1     4     6     9
 -0.0000000002     1     4     7     6
 0.0000000003     1     4     7     7
 0.0096982017     1     4     7     8
 -0.0091583327     1     4     7     9
 0.0094222902     1     4     8     6
 0.0099777189     1     4     8     7
 0.0000000002     1     4     8     8
 0.0000000001     1     4     8     9
 0.0099777189     1     4     9     6
 -0.0094222901     1     4     9     7
 0.0000000001     1     4     9     8
 -0.0889193813     1     4    10     1
 0.0000000002     1     4    10     2
 -0.0036923446     1     4    10     3
 -0.0048652952     1     4    10     5
 -0.0000000196     1     4    10    10
 0.0116385443     1     5     2     2
 -0.0000000001     1     5     2     3
 -0.0002545087     1     5     2     4
 0.0001819718     1     5     2    10
 -0.0779189993     1     5     3     1
 0.0160447025     1     5     3     3
 -0.0000000001     1     5     3     4
 -0.0000000001     1     5     3    10
 -0.0000000003     1     5     4     1
 0.2207843090     1     5     4     2
 -0.0000000002     1     5     4     3
 -0.0029209828     1     5     4     4
 -0.0027039821     1     5     4    10
 -0.6567317898     1     5     5     1
 0.0000000004     1     5     5     2
 0.0233411953     1     5     5     3
 -0.0000000002     1     5     5     4
 -0.0000000001     1     5     5    10
 0.0120245304     1     5     6     6
 -0.0000000001     1     5     6     8
 0.0120245304     1     5     7     7
 -0.0000000002     1     5     7     9
 -0.0000000001     1     5     8     6
 0.0081019603     1     5     8     8
 0.0081019602     1     5     9     9
 0.0000000005     1     5    10     1
 -0.0512312839     1     5    10     2
 0.0000000003     1     5    10     3
 0.0048652952     1     5    10     4
 0.0036156257     1     5    10    10
 -0.0001936516     1     6     2     8
 -0.0002050670     1     6     2     9
 -0.0010455357     1     6     4     8
 -0.0011071684     1     6     4     9
 0.0000000001     1     6     5     8
 -0.6391633176     1     6     6     1
 0.0176075761     1     6     6     3
 0.0000000001     1     6     6     4
 -0.0120245304     1     6     6     5
 0.0000000001     1     6     6    10
 -0.0000000001     1     6     7     1
 0.0000000001     1     6     7     3
 0.0000000002     1     6     7     4
 0.0000000023     1     6     8     1
 0.1412753899     1     6     8     2
 -0.0000000002     1     6     8     3
 -0.0094222902     1     6     8     4
 0.0000000001     1     6     8     5
 -0.0061820973     1     6     8    10
 0.0000000005     1     6     9     1
 0.1496033460     1     6     9     2
 0.0000000001     1     6     9     3
 -0.0099777189     1     6     9     4
 -0.0065465219     1     6     9    10
 -0.0003245337     1     6    10     8
 -0.0003436644     1     6    10     9
 -0.0002050670     1     7     2     8
 0.0001936516     1     7     2     9
 -0.0011071684     1     7     4     8
 0.0010455357     1     7     4     9
 -0.0000000001     1     7     6     1
 0.0000000001     1     7     6     3
 0.0000000002     1     7     6     4
 -0.6391633173     1     7     7     1
 0.0176075759     1     7     7     3
 -0.0000000003     1     7     7     4
 -0.0120245304     1     7     7     5
 -0.0000000003     1     7     8     1
 0.1496033459     1     7     8     2
 0.0000000002     1     7     8     3
 -0.0099777189     1     7     8     4
 -0.0065465219     1     7     8    10
 0.0000000021     1     7     9     1
 -0.1412753897     1     7     9     2
 -0.0000000004     1     7     9     3
 0.0094222901     1     7     9     4
 0.0061820972     1     7     9    10
 -0.0003436644     1     7    10     8
 0.0003245337     1     7    10     9
 0.0001936516     1     8     2     6
 0.0002050670     1     8     2     7
 0.0010455357     1     8     4     6
 0.0011071684     1     8     4     7
 -0.0000000001     1     8     5     6
 0.0000000023     1     8     6     1
 0.1414840311     1     8     6     2
 -0.0000000002     1     8     6     3
 -0.0091583328     1     8     6     4
 0.0000000001     1     8     6     5
 -0.0059562011     1     8     6    10
 -0.0000000003     1     8     7     1
 0.1498242862     1     8     7     2
 0.0000000001     1     8     7     3
 -0.0096982017     1     8     7     4
 -0.0063073095     1     8     7    10
 -0.5934194870     1     8     8     1
 0.0148047339     1     8     8     3
 -0.0000000002     1     8     8     4
 -0.0081019603     1     8     8     5
 0.0000000003     1     8     8    10
 0.0000000001     1     8     9     3
 -0.0000000001     1     8     9     4
 -0.0000000001     1     8     9    10
 0.0003245337     1     8    10     6
 0.0003436644     1     8    10     7
 0.0002050670     1     9     2     6
 -0.0001936516     1     9     2     7
 0.0011071684     1     9     4     6
 -0.0010455357     1     9     4     7
 0.0000000005     1     9     6     1
 0.1498242863     1     9     6     2
 -0.0096982017     1     9     6     4
 -0.0063073095     1     9     6    10
 0.0000000021     1     9     7     1
 -0.1414840309     1     9     7     2
 -0.0000000003     1     9     7     3
 0.0091583327     1     9     7     4
 0.0000000002     1     9     7     5
 0.0059562011     1     9     7    10
 0.0000000001     1     9     8     3
 -0.0000000001     1     9     8     4
 -0.0000000001     1     9     8    10
 -0.5934194870     1     9     9     1
 0.0148047338     1     9     9     3
 -0.0081019602     1     9     9     5
 0.0000000003     1     9     9    10
 0.0003436644     1     9    10     6
 -0.0003245337     1     9    10     7
 -0.0031621853     1    10     2     1
 -0.0000882264     1    10     2     3
 -0.0001819718     1    10     2     5
 -0.1021557440     1    10     3     2
 0.0010526013     1    10     3     4
 0.0000000001     1    10     3     5
 -0.0889193813     1    10     4     1
 0.0000000002     1    10     4     2
 -0.0028680496     1    10     4     3
 -0.0000000003     1    10     4     4
 0.0027039821     1    10     4     5
 0.0000000005     1    10     5     1
 -0.0514019425     1    10     5     2
 0.0000000005     1    10     5     3
 0.0081077300     1    10     5     4
 0.0000000001     1    10     5     5
 -0.0000000001     1    10     6     6
 0.0059562011     1    10     6     8
 0.0063073095     1    10     6     9
 0.0063073095     1    10     7     8
 -0.0059562011     1    10     7     9
 0.0061820973     1    10     8     6
 0.0065465219     1    10     8     7
 -0.0000000003     1    10     8     8
 0.0000000001     1    10     8     9
 0.0065465219     1    10     9     6
 -0.0061820972     1    10     9     7
 0.0000000001     1    10     9     8
 -0.0000000003     1    10     9     9
 -0.3824533215     1    10    10     1
 0.0000000003     1    10    10     2
 0.0009485239     1    10    10     3
 0.0000000196     1    10    10     4
 -0.0036156257     1    10    10     5
 -0.4071783756     2     1     1     2
 0.0044036706     2     1     1     4
 -0.0031621853     2     1     1    10
 -0.0053490998     2     1     3     2
 -0.0000000003     2     1     3     3
 0.1938689621     2     1     3     4
 -0.0000000001     2     1     3     5
 0.1020595098     2     1     3    10
 0.1937416103     2     1     4     3
 -0.0000000002     2     1     4     4
 -0.2210385593     2     1     4     5
 -0.0000000002     2     1     4    10
 -0.0116385443     2     1     5     2
 -0.2207843090     2     1     5     4
 -0.0000000004     2     1     5     5
 0.0512312839     2     1     5    10
 -0.1412753899     2     1     6     8
 -0.1496033460     2     1     6     9
 -0.1496033459     2     1     7     8
 0.1412753897     2     1     7     9
 -0.1414840311     2     1     8     6
 -0.1498242862     2     1     8     7
 -0.1498242863     2     1     9     6
 0.1414840309     2     1     9     7
 0.1021557440     2     1    10     3
 -0.0000000002     2     1    10     4
 0.0514019425     2     1    10     5
 -0.0000000003     2     1    10    10
 0.4071783756     2     2     1     1
 0.0053490998     2     2     1     3
 0.0116385443     2     2     1     5
 0.0053490998     2     2     3     1
 0.7186331899     2     2     3     3
 -0.0000000003     2     2     3     4
 0.0781857219     2     2     3     5
 -0.0000000001     2     2     3    10
 -0.0000000003     2     2     4     3
 0.6238859353     2     2     4     4
 0.0000000003     2     2     4     5
 0.0889641671     2     2     4    10
 0.0116385443     2     2     5     1
 0.0781857219     2     2     5     3
 0.0000000003     2     2     5     4
 0.6574180119     2     2     5     5
 -0.0000000005     2     2     5    10
 0.6394858868     2     2     6     6
 0.0000000001     2     2     6     7
 -0.0000000022     2     2     6     8
 -0.0000000005     2     2     6     9
 0.0000000001     2     2     7     6
 0.6394858865     2     2     7     7
 0.0000000004     2     2     7     8
 -0.0000000021     2     2     7     9
 -0.0000000022     2     2     8     6
 0.0000000004     2     2     8     7
 0.5932086037     2     2     8     8
 -0.0000000005     2     2     9     6
 -0.0000000021     2     2     9     7
 0.5932086037     2     2     9     9
 -0.0000000001     2     2    10     3
 0.0889641671     2     2    10     4
 -0.0000000005     2     2    10     5
 0.3824034532     2     2    10    10
 -0.0053490998     2     3     1     2
 0.0001233387     2     3     1     4
 -0.0000000001     2     3     1     5
 -0.0000882264     2     3     1    10
 0.0000000003     2     3     3     1
 -0.7186331899     2     3     3     2
 0.0073903796     2     3     3     4
 0.0000000001     2     3     3     5
 -0.0046239915     2     3     3    10
 -0.1937416103     2     3     4     1
 0.0000000003     2     3     4     2
 -0.0000000001     2     3     4     4
 0.0129915791     2     3     4     5
 0.0000000006     2     3     4    10
 -0.0781857219     2     3     5     2
 0.0171444203     2     3     5     4
 0.0000000002     2     3     5     5
 -0.0047498547     2     3     5    10
 0.0000000001     2     3     6     6
 -0.0000000001     2     3     6     7
 0.0137243396     2     3     6     8
 0.0145333673     2     3     6     9
 -0.0000000001     2     3     7     6
 0.0000000004     2     3     7     7
 0.0145333673     2     3     7     8
 -0.0137243396     2     3     7     9
 0.0098332259     2     3     8     6
 0.0104128787     2     3     8     7
 0.0000000002     2     3     8     8
 0.0000000001     2     3     8     9
 0.0104128787     2     3     9     6
 -0.0098332259     2     3     9     7
 0.0000000001     2     3     9     8
 0.0000000001     2     3     9     9
 -0.1021557440     2     3    10     1
 0.0000000001     2     3    10     2
 0.0000000006     2     3    10     4
 -0.0046958835     2     3    10     5
 -0.0000000368     2     3    10    10
 -0.0044036706     2     4     1     1
 -0.0001233387     2     4     1     3
 -0.0002545087     2     4     1     5
 -0.1938689621     2     4     3     1
 0.0000000003     2     4     3     2
 -0.0073903796     2     4     3     3
 -0.0041543212     2     4     3     5
 -0.0000000001     2     4     3    10
 0.0000000002     2     4     4     1
 -0.6238859353     2     4     4     2
 0.0000000001     2     4     4     3
 0.0000000002     2     4     4     5
 0.0022058157     2     4     4    10
 0.2207843090     2     4     5     1
 -0.0000000003     2     4     5     2
 -0.0171444203     2     4     5     3
 -0.0204352652     2     4     5     5
 -0.0000000006     2     4     5    10
 -0.0193719609     2     4     6     6
 -0.0000000001     2     4     6     7
 0.0000000002     2     4     6     8
 -0.0000000001     2     4     7     6
 -0.0193719607     2     4     7     7
 -0.0000000001     2     4     7     8
 0.0000000004     2     4     7     9
 0.0000000002     2     4     8     6
 -0.0000000002     2     4     8     7
 -0.0184301223     2     4     8     8
 -0.0000000001     2     4     8     9
 0.0000000004     2     4     9     7
 -0.0000000001     2     4     9     8
 -0.0184301222     2     4     9     9
 0.0000000002     2     4    10     1
 -0.0889641671     2     4    10     2
 -0.0000000006     2     4    10     3
 -0.0000000005     2     4    10     5
 -0.0035650169     2     4    10    10
 -0.0116385443     2     5     1     2
 0.0000000001     2     5     1     3
 0.0002545087     2     5     1     4
 -0.0001819718     2     5     1    10
 0.0000000001     2     5     3     1
 -0.0781857219     2     5     3     2
 -0.0000000001     2     5     3     3
 0.0041543212     2     5     3     4
 0.0001745793     2     5     3    10
 0.2210385593     2     5     4     1
 -0.0000000003     2     5     4     2
 -0.0129915791     2     5     4     3
 -0.0000000002     2     5     4     4
 -0.0000000001     2     5     4    10
 0.0000000004     2     5     5     1
 -0.6574180119     2     5     5     2
 -0.0000000002     2     5     5     3
 0.0204352652     2     5     5     4
 0.0056903871     2     5     5    10
 0.0000000001     2     5     6     6
 0.0000000001     2     5     6     7
 -0.0004726998     2     5     6     8
 -0.0005005647     2     5     6     9
 0.0000000001     2     5     7     6
 -0.0005005647     2     5     7     8
 0.0004726998     2     5     7     9
 -0.0016021021     2     5     8     6
 -0.0016965434     2     5     8     7
 -0.0016965434     2     5     9     6
 0.0016021021     2     5     9     7
 -0.0514019425     2     5    10     1
 0.0000000005     2     5    10     2
 0.0046958835     2     5    10     3
 0.0000000005     2     5    10     4
 -0.0000000084     2     5    10    10
 0.0001936516     2     6     1     8
 0.0002050670     2     6     1     9
 0.0029640782     2     6     3     8
 0.0031388058     2     6     3     9
 0.0009333907     2     6     5     8
 0.0009884127     2     6     5     9
 -0.6394858868     2     6     6     2
 -0.0000000001     2     6     6     3
 0.0193719609     2     6     6     4
 -0.0000000001     2     6     6     5
 0.0062713053     2     6     6    10
 -0.0000000001     2     6     7     2
 0.0000000001     2     6     7     3
 0.0000000001     2     6     7     4
 -0.0000000001     2     6     7     5
 0.1414840311     2     6     8     1
 0.0000000022     2     6     8     2
 -0.0098332259     2     6     8     3
 -0.0000000002     2     6     8     4
 0.0016021021     2     6     8     5
 0.0000000005     2     6     8    10
 0.1498242863     2     6     9     1
 0.0000000005     2     6     9     2
 -0.0104128787     2     6     9     3
 0.0016965434     2     6     9     5
 0.0000000007     2     6     9    10
 0.0000000007     2     6    10     8
 0.0000000007     2     6    10     9
 0.0002050670     2     7     1     8
 -0.0001936516     2     7     1     9
 0.0031388058     2     7     3     8
 -0.0029640782     2     7     3     9
 0.0009884127     2     7     5     8
 -0.0009333907     2     7     5     9
 -0.0000000001     2     7     6     2
 0.0000000001     2     7     6     3
 0.0000000001     2     7     6     4
 -0.0000000001     2     7     6     5
 -0.6394858865     2     7     7     2
 -0.0000000004     2     7     7     3
 0.0193719607     2     7     7     4
 0.0062713051     2     7     7    10
 0.1498242862     2     7     8     1
 -0.0000000004     2     7     8     2
 -0.0104128787     2     7     8     3
 0.0000000002     2     7     8     4
 0.0016965434     2     7     8     5
 0.0000000008     2     7     8    10
 -0.1414840309     2     7     9     1
 0.0000000021     2     7     9     2
 0.0098332259     2     7     9     3
 -0.0000000004     2     7     9     4
 -0.0016021021     2     7     9     5
 -0.0000000010     2     7     9    10
 0.0000000007     2     7    10     8
 -0.0000000007     2     7    10     9
 -0.0001936516     2     8     1     6
 -0.0002050670     2     8     1     7
 -0.0029640782     2     8     3     6
 -0.0031388058     2     8     3     7
 -0.0009333907     2     8     5     6
 -0.0009884127     2     8     5     7
 0.1412753899     2     8     6     1
 0.0000000022     2     8     6     2
 -0.0137243396     2     8     6     3
 -0.0000000002     2     8     6     4
 0.0004726998     2     8     6     5
 0.0000000003     2     8     6    10
 0.1496033459     2     8     7     1
 -0.0000000004     2     8     7     2
 -0.0145333673     2     8     7     3
 0.0000000001     2     8     7     4
 0.0005005647     2     8     7     5
 0.0000000004     2     8     7    10
 -0.5932086037     2     8     8     2
 -0.0000000002     2     8     8     3
 0.0184301223     2     8     8     4
 0.0078565449     2     8     8    10
 -0.0000000001     2     8     9     3
 0.0000000001     2     8     9     4
 0.0000000001     2     8     9    10
 -0.0000000007     2     8    10     6
 -0.0000000007     2     8    10     7
 -0.0002050670     2     9     1     6
 0.0001936516     2     9     1     7
 -0.0031388058     2     9     3     6
 0.0029640782     2     9     3     7
 -0.0009884127     2     9     5     6
 0.0009333907     2     9     5     7
 0.1496033460     2     9     6     1
 0.0000000005     2     9     6     2
 -0.0145333673     2     9     6     3
 0.0005005647     2     9     6     5
 0.0000000003     2     9     6    10
 -0.1412753897     2     9     7     1
 0.0000000021     2     9     7     2
 0.0137243396     2     9     7     3
 -0.0000000004     2     9     7     4
 -0.0004726998     2     9     7     5
 -0.0000000004     2     9     7    10
 -0.0000000001     2     9     8     3
 0.0000000001     2     9     8     4
 0.0000000001     2     9     8    10
 -0.5932086037     2     9     9     2
 -0.0000000001     2     9     9     3
 0.0184301222     2     9     9     4
 0.0078565449     2     9     9    10
 -0.0000000007     2     9    10     6
 0.0000000007     2     9    10     7
 0.0031621853     2    10     1     1
 0.0000882264     2    10     1     3
 0.0001819718     2    10     1     5
 -0.1020595098     2    10     3     1
 0.0000000001     2    10     3     2
 0.0046239915     2    10     3     3
 0.0000000001     2    10     3     4
 -0.0001745793     2    10     3     5
 0.0000000002     2    10     4     1
 -0.0889641671     2    10     4     2
 -0.0000000006     2    10     4     3
 -0.0022058157     2    10     4     4
 0.0000000001     2    10     4     5
 -0.0512312839     2    10     5     1
 0.0000000005     2    10     5     2
 0.0047498547     2    10     5     3
 0.0000000006     2    10     5     4
 -0.0056903871     2    10     5     5
 -0.0062713053     2    10     6     6
 -0.0000000003     2    10     6     8
 -0.0000000003     2    10     6     9
 -0.0062713051     2    10     7     7
 -0.0000000004     2    10     7     8
 0.0000000004     2    10     7     9
 -0.0000000005     2    10     8     6
 -0.0000000008     2    10     8     7
 -0.0078565449     2    10     8     8
 -0.0000000001     2    10     8     9
 -0.0000000007     2    10     9     6
 0.0000000010     2    10     9     7
 -0.0000000001     2    10     9     8
 -0.0078565449     2    10     9     9
 0.0000000003     2    10    10     1
 -0.3824034532     2    10    10     2
 0.0000000368     2    10    10     3
 0.0035650169     2    10    10     4
 0.0000000084     2    10    10     5
 -0.7185530154     3     1     1     3
 -0.0779189993     3     1     1     5
 0.0053490998     3     1     2     2
 0.0000000003     3     1     2     3
 -0.1938689621     3     1     2     4
 0.0000000001     3     1     2     5
 -0.1020595098     3     1     2    10
 -0.0001233387     3     1     4     2
 -0.0000000002     3     1     4     3
 -0.0061289004     3     1     4     4
 0.0000000001     3     1     4     5
 0.0036923446     3     1     4    10
 0.0000000001     3     1     5     2
 -0.0160447025     3     1     5     3
 0.0000000002     3     1     5     4
 -0.0233411953     3     1     5     5
 -0.0000000003     3     1     5    10
 -0.0176075761     3     1     6     6
 -0.0000000001     3     1     6     7
 0.0000000002     3     1     6     8
 -0.0000000001     3     1     6     9
 -0.0000000001     3     1     7     6
 -0.0176075759     3     1     7     7
 -0.0000000002     3     1     7     8
 0.0000000004     3     1     7     9
 0.0000000002     3     1     8     6
 -0.0000000001     3     1     8     7
 -0.0148047339     3     1     8     8
 -0.0000000001     3     1     8     9
 0.0000000003     3     1     9     7
 -0.0000000001     3     1     9     8
 -0.0148047338     3     1     9     9
 0.0000882264     3     1    10     2
 0.0028680496     3     1    10     4
 -0.0000000005     3     1    10     5
 -0.0009485239     3     1    10    10
 0.0000000003     3     2     1     3
 -0.1937416103     3     2     1     4
 -0.1021557440     3     2     1    10
 -0.0053490998     3     2     2     1
 -0.7186331899     3     2     2     3
 0.0000000003     3     2     2     4
 -0.0781857219     3     2     2     5
 0.0000000001     3     2     2    10
 0.0001233387     3     2     4     1
 0.0073903796     3     2     4     3
 -0.0000000001     3     2     4     4
 0.0171444203     3     2     4     5
 0.0000000006     3     2     4    10
 -0.0000000001     3     2     5     1
 0.0000000001     3     2     5     3
 0.0129915791     3     2     5     4
 0.0000000002     3     2     5     5
 -0.0046958835     3     2     5    10
 0.0000000001     3     2     6     6
 -0.0000000001     3     2     6     7
 0.0098332259     3     2     6     8
 0.0104128787     3     2     6     9
 -0.0000000001     3     2     7     6
 0.0000000004     3     2     7     7
 0.0104128787     3     2     7     8
 -0.0098332259     3     2     7     9
 0.0137243396     3     2     8     6
 0.0145333673     3     2     8     7
 0.0000000002     3     2     8     8
 0.0000000001     3     2     8     9
 0.0145333673     3     2     9     6
 -0.0137243396     3     2     9     7
 0.0000000001     3     2     9     8
 0.0000000001     3     2     9     9
 -0.0000882264     3     2    10     1
 -0.0046239915     3     2    10     3
 0.0000000006     3     2    10     4
 -0.0047498547     3     2    10     5
 -0.0000000368     3     2    10    10
 0.7185530154     3     3     1     1
 -0.0000000003     3     3     1     2
 0.0000000002     3     3     1     4
 0.0160447025     3     3     1     5
 -0.0000000003     3     3     2     1
 0.7186331899     3     3     2     2
 -0.0073903796     3     3     2     4
 -0.0000000001     3     3     2     5
 0.0046239915     3     3     2    10
 0.0000000002     3     3     4     1
 -0.0073903796     3     3     4     2
 0.4129447827     3     3     4     4
 0.0000000010     3     3     4     5
 0.0396414462     3     3     4    10
 0.0160447025     3     3     5     1
 -0.0000000001     3     3     5     2
 0.0000000010     3     3     5     4
 0.4654577920     3     3     5     5
 -0.0000000024     3     3     5    10
 0.4837875069     3     3     6     6
 0.0000000002     3     3     6     7
 -0.0000000020     3     3     6     8
 -0.0000000007     3     3     6     9
 0.0000000002     3     3     7     6
 0.4837875063     3     3     7     7
 -0.0000000001     3     3     7     8
 -0.0000000012     3     3     7     9
 -0.0000000020     3     3     8     6
 -0.0000000001     3     3     8     7
 0.4676162865     3     3     8     8
 0.0000000003     3     3     8     9
 -0.0000000007     3     3     9     6
 -0.0000000012     3     3     9     7
 0.0000000003     3     3     9     8
 0.4676162862     3     3     9     9
 0.0046239915     3     3    10     2
 0.0396414462     3     3    10     4
 -0.0000000024     3     3    10     5
 0.3208076224     3     3    10    10
 0.1937416103     3     4     1     2
 -0.0000000002     3     4     1     3
 -0.0000000001     3     4     1     5
 0.0010526013     3     4     1    10
 0.1938689621     3     4     2     1
 -0.0000000003     3     4     2     2
 0.0073903796     3     4     2     3
 0.0041543212     3     4     2     5
 0.0000000001     3     4     2    10
 0.0061289004     3     4     4     1
 0.0000000001     3     4     4     2
 -0.4129447827     3     4     4     3
 -0.1064946530     3     4     4     5
 0.0000000006     3     4     4    10
 -0.0000000002     3     4     5     1
 -0.0129915791     3     4     5     2
 -0.0000000010     3     4     5     3
 -0.0000000005     3     4     5     5
 0.0525928831     3     4     5    10
 0.0000000002     3     4     6     6
 -0.0000000001     3     4     6     7
 -0.0406888485     3     4     6     8
 -0.0430873905     3     4     6     9
 -0.0000000001     3     4     7     6
 0.0000000006     3     4     7     7
 -0.0430873905     3     4     7     8
 0.0406888485     3     4     7     9
 -0.0266925754     3     4     8     6
 -0.0282660597     3     4     8     7
 -0.0000000002     3     4     8     8
 -0.0000000005     3     4     8     9
 -0.0282660596     3     4     9     6
 0.0266925755     3     4     9     7
 -0.0000000005     3     4     9     8
 0.0000000004     3     4     9     9
 -0.0028680496     3     4    10     1
 -0.0000000006     3     4    10     2
 -0.0396414462     3     4    10     3
 0.0057087659     3     4    10     5
 -0.0000000377     3     4    10    10
 0.0779189993     3     5     1     1
 -0.0160447025     3     5     1     3
 0.0000000001     3     5     1     4
 0.0000000001     3     5     1    10
 -0.0000000001     3     5     2     1
 0.0781857219     3     5     2     2
 0.0000000001     3     5     2     3
 -0.0041543212     3     5     2     4
 -0.0001745793     3     5     2    10