&FCI NORB= 10,NELEC= 14,MS2=0,
 ORBSYM=1,1,1,1,1,1,1,1,1,1
 ISYM=1,
&END
 0.3307803361     1     1     2     2
 0.0019846812     1     1     2     4
 -0.0062697710     1     1     2    10
 0.6380010944     1     1     3     3
 0.0000000046     1     1     3     4
 0.0448106656     1     1     3     5
 0.0000000015     1     1     3    10
 0.0019846812     1     1     4     2
 0.0000000046     1     1     4     3
 0.6089460569     1     1     4     4
 -0.0000000016     1     1     4     5
 0.0638432591     1     1     4    10
 0.0448106656     1     1     5     3
 -0.0000000016     1     1     5     4
 0.6260619995     1     1     5     5
 -0.0000000006     1     1     5    10
 0.6000427618     1     1     6     6
 0.0000000002     1     1     6     7
 -0.0000000012     1     1     6     8
 -0.0000000032     1     1     6     9
 0.0000000002     1     1     7     6
 0.6000427618     1     1     7     7
 0.0000000035     1     1     7     8
 -0.0000000004     1     1     7     9
 -0.0000000012     1     1     8     6
 0.0000000035     1     1     8     7
 0.5866137210     1     1     8     8
 -0.0000000032     1     1     9     6
 -0.0000000004     1     1     9     7
 0.5866137210     1     1     9     9
 -0.0062697710     1     1    10     2
 0.0000000015     1     1    10     3
 0.0638432591     1     1    10     4
 -0.0000000006     1     1    10     5
 0.5895496400     1     1    10    10
 -0.3307803361     1     2     2     1
 0.0020302903     1     2     2     3
 0.0075193496     1     2     2     5
 0.0000000018     1     2     3     3
 0.2601389990     1     2     3     4
 0.0000000006     1     2     3     5
 0.1231504607     1     2     3    10
 -0.0019846812     1     2     4     1
 0.2601770643     1     2     4     3
 0.0000000008     1     2     4     4
 -0.1796033910     1     2     4     5
 0.0000000013     1     2     4    10
 0.0000000005     1     2     5     3
 -0.1796983757     1     2     5     4
 -0.0000000011     1     2     5     5
 0.1983560458     1     2     5    10
 -0.0000000010     1     2     6     6
 0.0000000002     1     2     6     7
 -0.0539447063     1     2     6     8
 -0.2447391600     1     2     6     9
 0.0000000002     1     2     7     6
 -0.0000000010     1     2     7     7
 0.2447391600     1     2     7     8
 -0.0539447064     1     2     7     9
 -0.0539109385     1     2     8     6
 0.2445859606     1     2     8     7
 -0.0000000002     1     2     8     8
 -0.2445859606     1     2     9     6
 -0.0539109386     1     2     9     7
 -0.0000000002     1     2     9     9
 0.0062697710     1     2    10     1
 0.1230684310     1     2    10     3
 0.0000000014     1     2    10     4
 0.1980798622     1     2    10     5
 -0.0000000001     1     2    10    10
 -0.0020302903     1     3     2     2
 -0.0000332558     1     3     2     4
 0.0000000001     1     3     2     5
 0.0000796607     1     3     2    10
 -0.6380010944     1     3     3     1
 -0.0000000018     1     3     3     2
 0.0000000005     1     3     3     4
 0.0094084913     1     3     3     5
 -0.0000000010     1     3     3    10
 -0.0000000046     1     3     4     1
 -0.2601770643     1     3     4     2
 0.0029261448     1     3     4     4
 0.0000000012     1     3     4     5
 -0.0065229423     1     3     4    10
 -0.0448106656     1     3     5     1
 -0.0000000005     1     3     5     2
 0.0000000015     1     3     5     4
 0.0217021838     1     3     5     5
 -0.0000000061     1     3     5    10
 0.0184002870     1     3     6     6
 -0.0000000004     1     3     6     8
 -0.0000000017     1     3     6     9
 0.0184002870     1     3     7     7
 0.0000000017     1     3     7     8
 -0.0000000003     1     3     7     9
 -0.0000000005     1     3     8     6
 0.0000000018     1     3     8     7
 0.0166915346     1     3     8     8
 -0.0000000018     1     3     9     6
 -0.0000000003     1     3     9     7
 0.0166915346     1     3     9     9
 -0.0000000015     1     3    10     1
 -0.1230684310     1     3    10     2
 -0.0065435915     1     3    10     4
 -0.0000000064     1     3    10     5
 0.0118073840     1     3    10    10
 -0.0019846812     1     4     2     1
 0.0000332558     1     4     2     3
 0.0000945274     1     4     2     5
 -0.0000000001     1     4     2    10
 -0.0000000046     1     4     3     1
 -0.2601389990     1     4     3     2
 -0.0000000005     1     4     3     3
 -0.0000000003     1     4     3     5
 0.0004787101     1     4     3    10
 -0.6089460569     1     4     4     1
 -0.0000000008     1     4     4     2
 -0.0029261448     1     4     4     3
 -0.0025220122     1     4     4     5
 0.0000000022     1     4     4    10
 0.0000000016     1     4     5     1
 0.1796983757     1     4     5     2
 -0.0000000015     1     4     5     3
 -0.0000000046     1     4     5     5
 0.0184603483     1     4     5    10
 0.0000000023     1     4     6     6
 0.0000000004     1     4     6     7
 -0.0035318186     1     4     6     8
 -0.0160233389     1     4     6     9
 0.0000000004     1     4     7     6
 0.0000000021     1     4     7     7
 0.0160233389     1     4     7     8
 -0.0035318185     1     4     7     9
 -0.0034547146     1     4     8     6
 0.0156735294     1     4     8     7
 0.0000000019     1     4     8     8
 0.0000000001     1     4     8     9
 -0.0156735294     1     4     9     6
 -0.0034547146     1     4     9     7
 0.0000000001     1     4     9     8
 0.0000000019     1     4     9     9
 -0.0638432591     1     4    10     1
 -0.0000000014     1     4    10     2
 0.0065435915     1     4    10     3
 0.0137434467     1     4    10     5
 -0.0000000047     1     4    10    10
 -0.0075193496     1     5     2     2
 -0.0000000001     1     5     2     3
 -0.0000945274     1     5     2     4
 0.0002845506     1     5     2    10
 -0.0448106656     1     5     3     1
 -0.0000000006     1     5     3     2
 -0.0094084913     1     5     3     3
 0.0000000003     1     5     3     4
 0.0000000002     1     5     3    10
 0.0000000016     1     5     4     1
 0.1796033910     1     5     4     2
 -0.0000000012     1     5     4     3
 0.0025220122     1     5     4     4
 0.0035731351     1     5     4    10
 -0.6260619995     1     5     5     1
 0.0000000011     1     5     5     2
 -0.0217021838     1     5     5     3
 0.0000000046     1     5     5     4
 0.0000000022     1     5     5    10
 -0.0083424444     1     5     6     6
 0.0000000001     1     5     6     8
 0.0000000001     1     5     6     9
 -0.0083424445     1     5     7     7
 -0.0000000001     1     5     7     8
 0.0000000003     1     5     8     6
 -0.0000000002     1     5     8     7
 -0.0067271341     1     5     8     8
 -0.0000000001     1     5     9     7
 -0.0067271341     1     5     9     9
 0.0000000006     1     5    10     1
 -0.1980798622     1     5    10     2
 0.0000000064     1     5    10     3
 -0.0137434467     1     5    10     4
 -0.0139169073     1     5    10    10
 -0.0000322789     1     6     2     8
 -0.0001464443     1     6     2     9
 0.0001447721     1     6     4     8
 0.0006568098     1     6     4     9
 -0.0000000002     1     6     5     8
 0.0000000001     1     6     5     9
 -0.6000427618     1     6     6     1
 0.0000000010     1     6     6     2
 -0.0184002870     1     6     6     3
 -0.0000000023     1     6     6     4
 0.0083424444     1     6     6     5
 -0.0000000008     1     6     6    10
 -0.0000000002     1     6     7     1
 -0.0000000002     1     6     7     2
 -0.0000000004     1     6     7     4
 -0.0000000001     1     6     7    10
 0.0000000012     1     6     8     1
 0.0539109385     1     6     8     2
 0.0000000005     1     6     8     3
 0.0034547146     1     6     8     4
 -0.0000000003     1     6     8     5
 0.0021894799     1     6     8    10
 0.0000000032     1     6     9     1
 0.2445859606     1     6     9     2
 0.0000000018     1     6     9     3
 0.0156735294     1     6     9     4
 0.0099333467     1     6     9    10
 0.0000449874     1     6    10     8
 0.0002041010     1     6    10     9
 0.0001464443     1     7     2     8
 -0.0000322789     1     7     2     9
 -0.0006568098     1     7     4     8
 0.0001447721     1     7     4     9
 0.0000000001     1     7     5     8
 0.0000000002     1     7     5     9
 -0.0000000002     1     7     6     1
 -0.0000000002     1     7     6     2
 -0.0000000004     1     7     6     4
 -0.0000000001     1     7     6    10
 -0.6000427618     1     7     7     1
 0.0000000010     1     7     7     2
 -0.0184002870     1     7     7     3
 -0.0000000021     1     7     7     4
 0.0083424445     1     7     7     5
 -0.0000000007     1     7     7    10
 -0.0000000035     1     7     8     1
 -0.2445859606     1     7     8     2
 -0.0000000018     1     7     8     3
 -0.0156735294     1     7     8     4
 0.0000000002     1     7     8     5
 -0.0099333467     1     7     8    10
 0.0000000004     1     7     9     1
 0.0539109386     1     7     9     2
 0.0000000003     1     7     9     3
 0.0034547146     1     7     9     4
 0.0000000001     1     7     9     5
 0.0021894799     1     7     9    10
 -0.0002041010     1     7    10     8
 0.0000449874     1     7    10     9
 0.0000322789     1     8     2     6
 -0.0001464443     1     8     2     7
 -0.0001447721     1     8     4     6
 0.0006568098     1     8     4     7
 0.0000000002     1     8     5     6
 -0.0000000001     1     8     5     7
 0.0000000012     1     8     6     1
 0.0539447063     1     8     6     2
 0.0000000004     1     8     6     3
 0.0035318186     1     8     6     4
 -0.0000000001     1     8     6     5
 0.0021956688     1     8     6    10
 -0.0000000035     1     8     7     1
 -0.2447391600     1     8     7     2
 -0.0000000017     1     8     7     3
 -0.0160233389     1     8     7     4
 0.0000000001     1     8     7     5
 -0.0099614248     1     8     7    10
 -0.5866137210     1     8     8     1
 0.0000000002     1     8     8     2
 -0.0166915346     1     8     8     3
 -0.0000000019     1     8     8     4
 0.0067271341     1     8     8     5
 -0.0000000009     1     8     8    10
 -0.0000000001     1     8     9     4
 -0.0000000003     1     8     9    10
 -0.0000449874     1     8    10     6
 0.0002041010     1     8    10     7
 0.0001464443     1     9     2     6
 0.0000322789     1     9     2     7
 -0.0006568098     1     9     4     6
 -0.0001447721     1     9     4     7
 -0.0000000001     1     9     5     6
 -0.0000000002     1     9     5     7
 0.0000000032     1     9     6     1
 0.2447391600     1     9     6     2
 0.0000000017     1     9     6     3
 0.0160233389     1     9     6     4
 -0.0000000001     1     9     6     5
 0.0099614248     1     9     6    10
 0.0000000004     1     9     7     1
 0.0539447064     1     9     7     2
 0.0000000003     1     9     7     3
 0.0035318185     1     9     7     4
 0.0021956688     1     9     7    10
 -0.0000000001     1     9     8     4
 -0.0000000003     1     9     8    10
 -0.5866137210     1     9     9     1
 0.0000000002     1     9     9     2
 -0.0166915346     1     9     9     3
 -0.0000000019     1     9     9     4
 0.0067271341     1     9     9     5
 -0.0000000005     1     9     9    10
 -0.0002041010     1     9    10     6
 -0.0000449874     1     9    10     7
 0.0062697710     1    10     2     1
 -0.0000796607     1    10     2     3
 0.0000000001     1    10     2     4
 -0.0002845506     1    10     2     5
 -0.0000000015     1    10     3     1
 -0.1231504607     1    10     3     2
 0.0000000010     1    10     3     3
 -0.0004787101     1    10     3     4
 -0.0000000002     1    10     3     5
 -0.0638432591     1    10     4     1
 -0.0000000013     1    10     4     2
 0.0065229423     1    10     4     3
 -0.0000000022     1    10     4     4
 -0.0035731351     1    10     4     5
 0.0000000006     1    10     5     1
 -0.1983560458     1    10     5     2
 0.0000000061     1    10     5     3
 -0.0184603483     1    10     5     4
 -0.0000000022     1    10     5     5
 0.0000000008     1    10     6     6
 0.0000000001     1    10     6     7
 -0.0021956688     1    10     6     8
 -0.0099614248     1    10     6     9
 0.0000000001     1    10     7     6
 0.0000000007     1    10     7     7
 0.0099614248     1    10     7     8
 -0.0021956688     1    10     7     9
 -0.0021894799     1    10     8     6
 0.0099333467     1    10     8     7
 0.0000000009     1    10     8     8
 0.0000000003     1    10     8     9
 -0.0099333467     1    10     9     6
 -0.0021894799     1    10     9     7
 0.0000000003     1    10     9     8
 0.0000000005     1    10     9     9
 -0.5895496400     1    10    10     1
 0.0000000001     1    10    10     2
 -0.0118073840     1    10    10     3
 0.0000000047     1    10    10     4
 0.0139169073     1    10    10     5
 -0.3307803361     2     1     1     2
 -0.0019846812     2     1     1     4
 0.0062697710     2     1     1    10
 0.0020302903     2     1     3     2
 0.0000000018     2     1     3     3
 0.2601770643     2     1     3     4
 0.0000000005     2     1     3     5
 0.1230684310     2     1     3    10
 0.2601389990     2     1     4     3
 0.0000000008     2     1     4     4
 -0.1796983757     2     1     4     5
 0.0000000014     2     1     4    10
 0.0075193496     2     1     5     2
 0.0000000006     2     1     5     3
 -0.1796033910     2     1     5     4
 -0.0000000011     2     1     5     5
 0.1980798622     2     1     5    10
 -0.0000000010     2     1     6     6
 0.0000000002     2     1     6     7
 -0.0539109385     2     1     6     8
 -0.2445859606     2     1     6     9
 0.0000000002     2     1     7     6
 -0.0000000010     2     1     7     7
 0.2445859606     2     1     7     8
 -0.0539109386     2     1     7     9
 -0.0539447063     2     1     8     6
 0.2447391600     2     1     8     7
 -0.0000000002     2     1     8     8
 -0.2447391600     2     1     9     6
 -0.0539447064     2     1     9     7
 -0.0000000002     2     1     9     9
 0.1231504607     2     1    10     3
 0.0000000013     2     1    10     4
 0.1983560458     2     1    10     5
 -0.0000000001     2     1    10    10
 0.3307803361     2     2     1     1
 -0.0020302903     2     2     1     3
 -0.0075193496     2     2     1     5
 -0.0020302903     2     2     3     1
 0.6380054070     2     2     3     3
 -0.0000000022     2     2     3     4
 0.0448843823     2     2     3     5
 -0.0000000016     2     2     3    10
 -0.0000000022     2     2     4     3
 0.6089314869     2     2     4     4
 0.0000000030     2     2     4     5
 0.0639022048     2     2     4    10
 -0.0075193496     2     2     5     1
 0.0448843823     2     2     5     3
 0.0000000030     2     2     5     4
 0.6264068402     2     2     5     5
 -0.0000000058     2     2     5    10
 0.6002080895     2     2     6     6
 0.0000000002     2     2     6     7
 0.0000000002     2     2     6     8
 0.0000000031     2     2     6     9
 0.0000000002     2     2     7     6
 0.6002080894     2     2     7     7
 -0.0000000028     2     2     7     8
 0.0000000011     2     2     7     9
 0.0000000002     2     2     8     6
 -0.0000000028     2     2     8     7
 0.5864974224     2     2     8     8
 0.0000000031     2     2     9     6
 0.0000000011     2     2     9     7
 0.5864974224     2     2     9     9
 -0.0000000016     2     2    10     3
 0.0639022048     2     2    10     4
 -0.0000000058     2     2    10     5
 0.5893201489     2     2    10    10
 0.0020302903     2     3     1     2
 0.0000332558     2     3     1     4
 -0.0000000001     2     3     1     5
 -0.0000796607     2     3     1    10
 -0.0000000018     2     3     3     1
 -0.6380054070     2     3     3     2
 -0.0026736757     2     3     3     4
 -0.0000000004     2     3     3     5
 0.0089031232     2     3     3    10
 -0.2601389990     2     3     4     1
 0.0000000022     2     3     4     2
 -0.0000000010     2     3     4     4
 -0.0085678848     2     3     4     5
 0.0000000019     2     3     4    10
 -0.0000000006     2     3     5     1
 -0.0448843823     2     3     5     2
 -0.0102218764     2     3     5     4
 -0.0000000053     2     3     5     5
 0.0178663724     2     3     5    10
 0.0000000020     2     3     6     6
 0.0000000003     2     3     6     7
 -0.0041220200     2     3     6     8
 -0.0187009957     2     3     6     9
 0.0000000003     2     3     7     6
 0.0000000019     2     3     7     7
 0.0187009957     2     3     7     8
 -0.0041220200     2     3     7     9
 -0.0033558831     2     3     8     6
 0.0152251459     2     3     8     7
 0.0000000017     2     3     8     8
 0.0000000001     2     3     8     9
 -0.0152251459     2     3     9     6
 -0.0033558831     2     3     9     7
 0.0000000001     2     3     9     8
 0.0000000017     2     3     9     9
 -0.1231504607     2     3    10     1
 0.0000000016     2     3    10     2
 0.0000000031     2     3    10     4
 0.0138439586     2     3    10     5
 -0.0000000034     2     3    10    10
 0.0019846812     2     4     1     1
 -0.0000332558     2     4     1     3
 -0.0000945274     2     4     1     5
 0.0000000001     2     4     1    10
 -0.2601770643     2     4     3     1
 0.0000000022     2     4     3     2
 0.0026736757     2     4     3     3
 0.0016813586     2     4     3     5
 -0.0000000011     2     4     3    10
 -0.0000000008     2     4     4     1
 -0.6089314869     2     4     4     2
 0.0000000010     2     4     4     3
 0.0000000011     2     4     4     5
 -0.0032769846     2     4     4    10
 0.1796033910     2     4     5     1
 -0.0000000030     2     4     5     2
 0.0102218764     2     4     5     3
 0.0201060581     2     4     5     5
 -0.0000000064     2     4     5    10
 0.0193429311     2     4     6     6
 -0.0000000003     2     4     6     8
 -0.0000000013     2     4     6     9
 0.0193429312     2     4     7     7
 0.0000000014     2     4     7     8
 -0.0000000003     2     4     7     9
 -0.0000000005     2     4     8     6
 0.0000000016     2     4     8     7
 0.0195455416     2     4     8     8
 -0.0000000014     2     4     9     6
 -0.0000000002     2     4     9     7
 0.0195455416     2     4     9     9
 -0.0000000013     2     4    10     1
 -0.0639022048     2     4    10     2
 -0.0000000031     2     4    10     3
 -0.0000000060     2     4    10     5
 0.0183753812     2     4    10    10
 0.0075193496     2     5     1     2
 0.0000000001     2     5     1     3
 0.0000945274     2     5     1     4
 -0.0002845506     2     5     1    10
 -0.0000000005     2     5     3     1
 -0.0448843823     2     5     3     2
 0.0000000004     2     5     3     3
 -0.0016813586     2     5     3     4
 0.0031570916     2     5     3    10
 0.1796983757     2     5     4     1
 -0.0000000030     2     5     4     2
 0.0085678848     2     5     4     3
 -0.0000000011     2     5     4     4
 -0.0000000006     2     5     4    10
 0.0000000011     2     5     5     1
 -0.6264068402     2     5     5     2
 0.0000000053     2     5     5     3
 -0.0201060581     2     5     5     4
 -0.0046553289     2     5     5    10
 -0.0000000002     2     5     6     6
 -0.0000000001     2     5     6     7
 0.0002033917     2     5     6     8
 0.0009227581     2     5     6     9
 -0.0000000001     2     5     7     6
 -0.0000000002     2     5     7     7
 -0.0009227581     2     5     7     8
 0.0002033917     2     5     7     9
 0.0004240997     2     5     8     6
 -0.0019240775     2     5     8     7
 -0.0000000002     2     5     8     8
 -0.0000000001     2     5     8     9
 0.0019240775     2     5     9     6
 0.0004240997     2     5     9     7
 -0.0000000001     2     5     9     8
 -0.0000000001     2     5     9     9
 -0.1983560458     2     5    10     1
 0.0000000058     2     5    10     2
 -0.0138439586     2     5    10     3
 0.0000000060     2     5    10     4
 0.0000000034     2     5    10    10
 0.0000322789     2     6     1     8
 0.0001464443     2     6     1     9
 -0.0005774484     2     6     3     8
 -0.0026197982     2     6     3     9
 -0.0002380989     2     6     5     8
 -0.0010802193     2     6     5     9
 0.0000000010     2     6     6     1
 -0.6002080895     2     6     6     2
 -0.0000000020     2     6     6     3
 -0.0193429311     2     6     6     4
 0.0000000002     2     6     6     5
 -0.0040286078     2     6     6    10
 -0.0000000002     2     6     7     1
 -0.0000000002     2     6     7     2
 -0.0000000003     2     6     7     3
 0.0000000001     2     6     7     5
 0.0539447063     2     6     8     1
 -0.0000000002     2     6     8     2
 0.0033558831     2     6     8     3
 0.0000000005     2     6     8     4
 -0.0004240997     2     6     8     5
 0.0000000002     2     6     8    10
 0.2447391600     2     6     9     1
 -0.0000000031     2     6     9     2
 0.0152251459     2     6     9     3
 0.0000000014     2     6     9     4
 -0.0019240775     2     6     9     5
 0.0000000006     2     6     9    10
 -0.0001464443     2     7     1     8
 0.0000322789     2     7     1     9
 0.0026197982     2     7     3     8
 -0.0005774484     2     7     3     9
 0.0010802193     2     7     5     8
 -0.0002380989     2     7     5     9
 -0.0000000002     2     7     6     1
 -0.0000000002     2     7     6     2
 -0.0000000003     2     7     6     3
 0.0000000001     2     7     6     5
 0.0000000010     2     7     7     1
 -0.6002080894     2     7     7     2
 -0.0000000019     2     7     7     3
 -0.0193429312     2     7     7     4
 0.0000000002     2     7     7     5
 -0.0040286078     2     7     7    10
 -0.2447391600     2     7     8     1
 0.0000000028     2     7     8     2
 -0.0152251459     2     7     8     3
 -0.0000000016     2     7     8     4
 0.0019240775     2     7     8     5
 -0.0000000006     2     7     8    10
 0.0539447064     2     7     9     1
 -0.0000000011     2     7     9     2
 0.0033558831     2     7     9     3
 0.0000000002     2     7     9     4
 -0.0004240997     2     7     9     5
 0.0000000001     2     7     9    10
 -0.0000322789     2     8     1     6
 0.0001464443     2     8     1     7
 0.0005774484     2     8     3     6
 -0.0026197982     2     8     3     7
 0.0002380989     2     8     5     6
 -0.0010802193     2     8     5     7
 0.0539109385     2     8     6     1
 -0.0000000002     2     8     6     2
 0.0041220200     2     8     6     3
 0.0000000003     2     8     6     4
 -0.0002033917     2     8     6     5
 0.0000000001     2     8     6    10
 -0.2445859606     2     8     7     1
 0.0000000028     2     8     7     2
 -0.0187009957     2     8     7     3
 -0.0000000014     2     8     7     4
 0.0009227581     2     8     7     5
 -0.0000000005     2     8     7    10
 0.0000000002     2     8     8     1
 -0.5864974224     2     8     8     2
 -0.0000000017     2     8     8     3
 -0.0195455416     2     8     8     4
 0.0000000002     2     8     8     5
 -0.0069284217     2     8     8    10
 -0.0000000001     2     8     9     3
 0.0000000001     2     8     9     5
 -0.0001464443     2     9     1     6
 -0.0000322789     2     9     1     7
 0.0026197982     2     9     3     6
 0.0005774484     2     9     3     7
 0.0010802193     2     9     5     6
 0.0002380989     2     9     5     7
 0.2445859606     2     9     6     1
 -0.0000000031     2     9     6     2
 0.0187009957     2     9     6     3
 0.0000000013     2     9     6     4
 -0.0009227581     2     9     6     5
 0.0000000006     2     9     6    10
 0.0539109386     2     9     7     1
 -0.0000000011     2     9     7     2
 0.0041220200     2     9     7     3
 0.0000000003     2     9     7     4
 -0.0002033917     2     9     7     5
 0.0000000001     2     9     7    10
 -0.0000000001     2     9     8     3
 0.0000000001     2     9     8     5
 0.0000000002     2     9     9     1
 -0.5864974224     2     9     9     2
 -0.0000000017     2     9     9     3
 -0.0195455416     2     9     9     4
 0.0000000001     2     9     9     5
 -0.0069284217     2     9     9    10
 -0.0062697710     2    10     1     1
 0.0000796607     2    10     1     3
 -0.0000000001     2    10     1     4
 0.0002845506     2    10     1     5
 -0.1230684310     2    10     3     1
 0.0000000016     2    10     3     2
 -0.0089031232     2    10     3     3
 0.0000000011     2    10     3     4
 -0.0031570916     2    10     3     5
 -0.0000000014     2    10     4     1
 -0.0639022048     2    10     4     2
 -0.0000000019     2    10     4     3
 0.0032769846     2    10     4     4
 0.0000000006     2    10     4     5
 -0.1980798622     2    10     5     1
 0.0000000058     2    10     5     2
 -0.0178663724     2    10     5     3
 0.0000000064     2    10     5     4
 0.0046553289     2    10     5     5
 0.0040286078     2    10     6     6
 -0.0000000001     2    10     6     8
 -0.0000000006     2    10     6     9
 0.0040286078     2    10     7     7
 0.0000000005     2    10     7     8
 -0.0000000001     2    10     7     9
 -0.0000000002     2    10     8     6
 0.0000000006     2    10     8     7
 0.0069284217     2    10     8     8
 -0.0000000006     2    10     9     6
 -0.0000000001     2    10     9     7
 0.0069284217     2    10     9     9
 0.0000000001     2    10    10     1
 -0.5893201489     2    10    10     2
 0.0000000034     2    10    10     3
 -0.0183753812     2    10    10     4
 -0.0000000034     2    10    10     5
 -0.6380010944     3     1     1     3
 -0.0000000046     3     1     1     4
 -0.0448106656     3     1     1     5
 -0.0000000015     3     1     1    10
 -0.0020302903     3     1     2     2
 -0.0000000018     3     1     2     3
 -0.2601770643     3     1     2     4
 -0.0000000005     3     1     2     5
 -0.1230684310     3     1     2    10
 -0.0000332558     3     1     4     2
 0.0000000005     3     1     4     3
 0.0029261448     3     1     4     4
 0.0000000015     3     1     4     5
 -0.0065435915     3     1     4    10
 0.0000000001     3     1     5     2
 0.0094084913     3     1     5     3
 0.0000000012     3     1     5     4
 0.0217021838     3     1     5     5
 -0.0000000064     3     1     5    10
 0.0184002870     3     1     6     6
 -0.0000000005     3     1     6     8
 -0.0000000018     3     1     6     9
 0.0184002870     3     1     7     7
 0.0000000018     3     1     7     8
 -0.0000000003     3     1     7     9
 -0.0000000004     3     1     8     6
 0.0000000017     3     1     8     7
 0.0166915346     3     1     8     8
 -0.0000000017     3     1     9     6
 -0.0000000003     3     1     9     7
 0.0166915346     3     1     9     9
 0.0000796607     3     1    10     2
 -0.0000000010     3     1    10     3
 -0.0065229423     3     1    10     4
 -0.0000000061     3     1    10     5
 0.0118073840     3     1    10    10
 -0.0000000018     3     2     1     3
 -0.2601389990     3     2     1     4
 -0.0000000006     3     2     1     5
 -0.1231504607     3     2     1    10
 0.0020302903     3     2     2     1
 -0.6380054070     3     2     2     3
 0.0000000022     3     2     2     4
 -0.0448843823     3     2     2     5
 0.0000000016     3     2     2    10
 0.0000332558     3     2     4     1
 -0.0026736757     3     2     4     3
 -0.0000000010     3     2     4     4
 -0.0102218764     3     2     4     5
 0.0000000031     3     2     4    10
 -0.0000000001     3     2     5     1
 -0.0000000004     3     2     5     3
 -0.0085678848     3     2     5     4
 -0.0000000053     3     2     5     5
 0.0138439586     3     2     5    10
 0.0000000020     3     2     6     6
 0.0000000003     3     2     6     7
 -0.0033558831     3     2     6     8
 -0.0152251459     3     2     6     9
 0.0000000003     3     2     7     6
 0.0000000019     3     2     7     7
 0.0152251459     3     2     7     8
 -0.0033558831     3     2     7     9
 -0.0041220200     3     2     8     6
 0.0187009957     3     2     8     7
 0.0000000017     3     2     8     8
 0.0000000001     3     2     8     9
 -0.0187009957     3     2     9     6
 -0.0041220200     3     2     9     7
 0.0000000001     3     2     9     8
 0.0000000017     3     2     9     9
 -0.0000796607     3     2    10     1
 0.0089031232     3     2    10     3
 0.0000000019     3     2    10     4
 0.0178663724     3     2    10     5
 -0.0000000034     3     2    10    10
 0.6380010944     3     3     1     1
 0.0000000018     3     3     1     2
 -0.0000000005     3     3     1     4
 -0.0094084913     3     3     1     5
 0.0000000010     3     3     1    10
 0.0000000018     3     3     2     1
 0.6380054070     3     3     2     2
 0.0026736757     3     3     2     4
 0.0000000004     3     3     2     5
 -0.0089031232     3     3     2    10
 -0.0000000005     3     3     4     1
 0.0026736757     3     3     4     2
 0.3385015634     3     3     4     4
 -0.0000000010     3     3     4     5
 0.0144828761     3     3     4    10
 -0.0094084913     3     3     5     1
 0.0000000004     3     3     5     2
 -0.0000000010     3     3     5     4
 0.4257186124     3     3     5     5
 0.0000000018     3     3     5    10
 0.4288391940     3     3     6     6
 -0.0000000004     3     3     6     7
 -0.0000000003     3     3     6     8
 0.0000000004     3     3     6     9
 -0.0000000004     3     3     7     6
 0.4288391941     3     3     7     7
 0.0000000004     3     3     7     9
 -0.0000000003     3     3     8     6
 0.4330315458     3     3     8     8
 -0.0000000001     3     3     8     9
 0.0000000004     3     3     9     6
 0.0000000004     3     3     9     7
 -0.0000000001     3     3     9     8
 0.4330315459     3     3     9     9
 0.0000000010     3     3    10     1
 -0.0089031232     3     3    10     2
 0.0144828761     3     3    10     4