&FCI NORB= 10,NELEC= 14,MS2=0,
 ORBSYM=1,1,1,1,1,1,1,1,1,1
 ISYM=1,
&END
 0.4411447222     1     1     2     2
 -0.0057951208     1     1     2     4
 -0.0000000001     1     1     2     5
 0.0009573106     1     1     2    10
 0.7571400388     1     1     3     3
 0.0000000007     1     1     3     4
 -0.0904872464     1     1     3     5
 0.0000000033     1     1     3    10
 -0.0057951208     1     1     4     2
 0.0000000007     1     1     4     3
 0.6298192943     1     1     4     4
 -0.0000000002     1     1     4     5
 0.0924852360     1     1     4    10
 -0.0000000001     1     1     5     2
 -0.0904872464     1     1     5     3
 -0.0000000002     1     1     5     4
 0.6659290349     1     1     5     5
 -0.0000000085     1     1     5    10
 0.6586553028     1     1     6     6
 0.0000000001     1     1     6     7
 0.0000000004     1     1     6     8
 0.0000000002     1     1     6     9
 0.0000000001     1     1     7     6
 0.6586553036     1     1     7     7
 0.0000000028     1     1     7     8
 0.0000000028     1     1     7     9
 0.0000000004     1     1     8     6
 0.0000000028     1     1     8     7
 0.5896325850     1     1     8     8
 0.0000000002     1     1     8     9
 0.0000000002     1     1     9     6
 0.0000000028     1     1     9     7
 0.0000000002     1     1     9     8
 0.5896325850     1     1     9     9
 0.0009573106     1     1    10     2
 0.0000000033     1     1    10     3
 0.0924852360     1     1    10     4
 -0.0000000085     1     1    10     5
 0.3319235540     1     1    10    10
 -0.4411447222     1     2     2     1
 0.0074408212     1     2     2     3
 -0.0138451650     1     2     2     5
 0.0000000001     1     2     2    10
 -0.1687308299     1     2     3     4
 0.0000000007     1     2     3     5
 -0.0782703798     1     2     3    10
 0.0057951208     1     2     4     1
 -0.1689364454     1     2     4     3
 0.0000000002     1     2     4     4
 -0.2290348709     1     2     4     5
 -0.0000000005     1     2     4    10
 0.0000000001     1     2     5     1
 0.0000000006     1     2     5     3
 -0.2294018142     1     2     5     4
 -0.0000000019     1     2     5     5
 0.0088180308     1     2     5    10
 0.0000000022     1     2     6     6
 0.1476985320     1     2     6     8
 -0.1224866266     1     2     6     9
 0.0000000019     1     2     7     7
 0.1224866265     1     2     7     8
 0.1476985320     1     2     7     9
 0.1474028124     1     2     8     6
 0.1222413858     1     2     8     7
 0.0000000002     1     2     8     8
 -0.0000000001     1     2     8     9
 -0.1222413858     1     2     9     6
 0.1474028123     1     2     9     7
 -0.0000000001     1     2     9     8
 0.0000000002     1     2     9     9
 -0.0009573106     1     2    10     1
 -0.0782194622     1     2    10     3
 -0.0000000004     1     2    10     4
 0.0087687809     1     2    10     5
 0.0000000005     1     2    10    10
 -0.0074408212     1     3     2     2
 0.0002035957     1     3     2     4
 0.0000000001     1     3     2     5
 -0.0000389268     1     3     2    10
 -0.7571400388     1     3     3     1
 -0.0189266406     1     3     3     5
 -0.0000000013     1     3     3    10
 -0.0000000007     1     3     4     1
 0.1689364454     1     3     4     2
 0.0076431040     1     3     4     4
 -0.0000000001     1     3     4     5
 -0.0007897196     1     3     4    10
 0.0904872464     1     3     5     1
 -0.0000000006     1     3     5     2
 -0.0000000003     1     3     5     4
 0.0240036518     1     3     5     5
 0.0000000031     1     3     5    10
 0.0175707930     1     3     6     6
 -0.0000000004     1     3     6     8
 0.0000000003     1     3     6     9
 0.0175707932     1     3     7     7
 0.0000000001     1     3     7     8
 -0.0000000006     1     3     8     6
 0.0000000001     1     3     8     7
 0.0138672040     1     3     8     8
 0.0000000001     1     3     8     9
 0.0000000006     1     3     9     6
 0.0000000001     1     3     9     8
 0.0138672040     1     3     9     9
 -0.0000000033     1     3    10     1
 0.0782194622     1     3    10     2
 -0.0015595095     1     3    10     4
 0.0000000008     1     3    10     5
 0.0005117537     1     3    10    10
 0.0057951208     1     4     2     1
 -0.0002035957     1     4     2     3
 0.0003677875     1     4     2     5
 -0.0000000001     1     4     2    10
 -0.0000000007     1     4     3     1
 0.1687308299     1     4     3     2
 0.0000000002     1     4     3     5
 0.0008202358     1     4     3    10
 -0.6298192943     1     4     4     1
 -0.0000000002     1     4     4     2
 -0.0076431040     1     4     4     3
 0.0027786086     1     4     4     5
 0.0000000003     1     4     4    10
 0.0000000002     1     4     5     1
 0.2294018142     1     4     5     2
 0.0000000003     1     4     5     3
 -0.0040596776     1     4     5    10
 0.0000000010     1     4     6     6
 -0.0000000001     1     4     6     7
 -0.0092854693     1     4     6     8
 0.0077004543     1     4     6     9
 -0.0000000001     1     4     7     6
 -0.0077004542     1     4     7     8
 -0.0092854691     1     4     7     9
 -0.0099240234     1     4     8     6
 -0.0082300082     1     4     8     7
 0.0000000003     1     4     8     8
 0.0000000004     1     4     8     9
 0.0082300084     1     4     9     6
 -0.0099240233     1     4     9     7
 0.0000000004     1     4     9     8
 0.0000000003     1     4     9     9
 -0.0924852360     1     4    10     1
 0.0000000004     1     4    10     2
 0.0015595095     1     4    10     3
 -0.0021575020     1     4    10     5
 -0.0000000262     1     4    10    10
 0.0000000001     1     5     2     1
 0.0138451650     1     5     2     2
 -0.0000000001     1     5     2     3
 -0.0003677875     1     5     2     4
 0.0000591433     1     5     2    10
 0.0904872464     1     5     3     1
 -0.0000000007     1     5     3     2
 0.0189266406     1     5     3     3
 -0.0000000002     1     5     3     4
 0.0000000005     1     5     3    10
 0.0000000002     1     5     4     1
 0.2290348709     1     5     4     2
 0.0000000001     1     5     4     3
 -0.0027786086     1     5     4     4
 -0.0015852283     1     5     4    10
 -0.6659290349     1     5     5     1
 0.0000000019     1     5     5     2
 -0.0240036518     1     5     5     3
 -0.0000000011     1     5     5    10
 0.0134971653     1     5     6     6
 0.0000000001     1     5     6     9
 0.0134971655     1     5     7     7
 0.0000000002     1     5     7     8
 0.0000000002     1     5     7     9
 -0.0000000001     1     5     8     6
 0.0000000001     1     5     8     7
 0.0081693611     1     5     8     8
 0.0000000001     1     5     8     9
 0.0000000001     1     5     9     6
 0.0000000001     1     5     9     7
 0.0000000001     1     5     9     8
 0.0081693611     1     5     9     9
 0.0000000085     1     5    10     1
 -0.0087687809     1     5    10     2
 -0.0000000008     1     5    10     3
 0.0021575020     1     5    10     4
 0.0004156664     1     5    10    10
 0.0002752767     1     6     2     8
 -0.0002282874     1     6     2     9
 0.0000000001     1     6     3     8
 -0.0000000001     1     6     3     9
 0.0015255044     1     6     4     8
 -0.0012651032     1     6     4     9
 0.0000000001     1     6     5     9
 -0.6586553028     1     6     6     1
 -0.0000000022     1     6     6     2
 -0.0175707930     1     6     6     3
 -0.0000000010     1     6     6     4
 -0.0134971653     1     6     6     5
 -0.0000000005     1     6     6    10
 -0.0000000001     1     6     7     1
 0.0000000001     1     6     7     4
 0.0000000001     1     6     7    10
 -0.0000000004     1     6     8     1
 -0.1474028124     1     6     8     2
 0.0000000006     1     6     8     3
 0.0099240234     1     6     8     4
 0.0000000001     1     6     8     5
 0.0055923525     1     6     8    10
 -0.0000000002     1     6     9     1
 0.1222413858     1     6     9     2
 -0.0000000006     1     6     9     3
 -0.0082300084     1     6     9     4
 -0.0000000001     1     6     9     5
 -0.0046377468     1     6     9    10
 0.0004270360     1     6    10     8
 -0.0003541417     1     6    10     9
 0.0002282874     1     7     2     8
 0.0002752767     1     7     2     9
 -0.0000000002     1     7     3     8
 -0.0000000001     1     7     3     9
 0.0012651032     1     7     4     8
 0.0015255044     1     7     4     9
 -0.0000000001     1     7     6     1
 0.0000000001     1     7     6     4
 0.0000000001     1     7     6    10
 -0.6586553036     1     7     7     1
 -0.0000000019     1     7     7     2
 -0.0175707932     1     7     7     3
 -0.0134971655     1     7     7     5
 0.0000000001     1     7     7    10
 -0.0000000028     1     7     8     1
 -0.1222413858     1     7     8     2
 -0.0000000001     1     7     8     3
 0.0082300082     1     7     8     4
 -0.0000000001     1     7     8     5
 0.0046377466     1     7     8    10
 -0.0000000028     1     7     9     1
 -0.1474028123     1     7     9     2
 0.0099240233     1     7     9     4
 -0.0000000001     1     7     9     5
 0.0055923524     1     7     9    10
 0.0003541417     1     7    10     8
 0.0004270360     1     7    10     9
 -0.0002752767     1     8     2     6
 -0.0002282874     1     8     2     7
 -0.0000000001     1     8     3     6
 0.0000000002     1     8     3     7
 -0.0015255044     1     8     4     6
 -0.0012651032     1     8     4     7
 -0.0000000004     1     8     6     1
 -0.1476985320     1     8     6     2
 0.0000000004     1     8     6     3
 0.0092854693     1     8     6     4
 0.0052915375     1     8     6    10
 -0.0000000028     1     8     7     1
 -0.1224866265     1     8     7     2
 -0.0000000001     1     8     7     3
 0.0077004542     1     8     7     4
 -0.0000000002     1     8     7     5
 0.0043882804     1     8     7    10
 -0.5896325850     1     8     8     1
 -0.0000000002     1     8     8     2
 -0.0138672040     1     8     8     3
 -0.0000000003     1     8     8     4
 -0.0081693611     1     8     8     5
 -0.0000000001     1     8     8    10
 -0.0000000002     1     8     9     1
 0.0000000001     1     8     9     2
 -0.0000000001     1     8     9     3
 -0.0000000004     1     8     9     4
 -0.0000000001     1     8     9     5
 -0.0000000029     1     8     9    10
 -0.0004270360     1     8    10     6
 -0.0003541417     1     8    10     7
 0.0002282874     1     9     2     6
 -0.0002752767     1     9     2     7
 0.0000000001     1     9     3     6
 0.0000000001     1     9     3     7
 0.0012651032     1     9     4     6
 -0.0015255044     1     9     4     7
 -0.0000000001     1     9     5     6
 -0.0000000002     1     9     6     1
 0.1224866266     1     9     6     2
 -0.0000000003     1     9     6     3
 -0.0077004543     1     9     6     4
 -0.0000000001     1     9     6     5
 -0.0043882805     1     9     6    10
 -0.0000000028     1     9     7     1
 -0.1476985320     1     9     7     2
 0.0092854691     1     9     7     4
 -0.0000000002     1     9     7     5
 0.0052915375     1     9     7    10
 -0.0000000002     1     9     8     1
 0.0000000001     1     9     8     2
 -0.0000000001     1     9     8     3
 -0.0000000004     1     9     8     4
 -0.0000000001     1     9     8     5
 -0.0000000029     1     9     8    10
 -0.5896325850     1     9     9     1
 -0.0000000002     1     9     9     2
 -0.0138672040     1     9     9     3
 -0.0000000003     1     9     9     4
 -0.0081693611     1     9     9     5
 -0.0000000001     1     9     9    10
 0.0003541417     1     9    10     6
 -0.0004270360     1     9    10     7
 -0.0009573106     1    10     2     1
 -0.0000000001     1    10     2     2
 0.0000389268     1    10     2     3
 0.0000000001     1    10     2     4
 -0.0000591433     1    10     2     5
 -0.0000000033     1    10     3     1
 0.0782703798     1    10     3     2
 0.0000000013     1    10     3     3
 -0.0008202358     1    10     3     4
 -0.0000000005     1    10     3     5
 -0.0924852360     1    10     4     1
 0.0000000005     1    10     4     2
 0.0007897196     1    10     4     3
 -0.0000000003     1    10     4     4
 0.0015852283     1    10     4     5
 0.0000000085     1    10     5     1
 -0.0088180308     1    10     5     2
 -0.0000000031     1    10     5     3
 0.0040596776     1    10     5     4
 0.0000000011     1    10     5     5
 0.0000000005     1    10     6     6
 -0.0000000001     1    10     6     7
 -0.0052915375     1    10     6     8
 0.0043882805     1    10     6     9
 -0.0000000001     1    10     7     6
 -0.0000000001     1    10     7     7
 -0.0043882804     1    10     7     8
 -0.0052915375     1    10     7     9
 -0.0055923525     1    10     8     6
 -0.0046377466     1    10     8     7
 0.0000000001     1    10     8     8
 0.0000000029     1    10     8     9
 0.0046377468     1    10     9     6
 -0.0055923524     1    10     9     7
 0.0000000029     1    10     9     8
 0.0000000001     1    10     9     9
 -0.3319235540     1    10    10     1
 -0.0000000005     1    10    10     2
 -0.0005117537     1    10    10     3
 0.0000000262     1    10    10     4
 -0.0004156664     1    10    10     5
 -0.4411447222     2     1     1     2
 0.0057951208     2     1     1     4
 0.0000000001     2     1     1     5
 -0.0009573106     2     1     1    10
 0.0074408212     2     1     3     2
 -0.1689364454     2     1     3     4
 0.0000000006     2     1     3     5
 -0.0782194622     2     1     3    10
 -0.1687308299     2     1     4     3
 0.0000000002     2     1     4     4
 -0.2294018142     2     1     4     5
 -0.0000000004     2     1     4    10
 -0.0138451650     2     1     5     2
 0.0000000007     2     1     5     3
 -0.2290348709     2     1     5     4
 -0.0000000019     2     1     5     5
 0.0087687809     2     1     5    10
 0.0000000022     2     1     6     6
 0.1474028124     2     1     6     8
 -0.1222413858     2     1     6     9
 0.0000000019     2     1     7     7
 0.1222413858     2     1     7     8
 0.1474028123     2     1     7     9
 0.1476985320     2     1     8     6
 0.1224866265     2     1     8     7
 0.0000000002     2     1     8     8
 -0.0000000001     2     1     8     9
 -0.1224866266     2     1     9     6
 0.1476985320     2     1     9     7
 -0.0000000001     2     1     9     8
 0.0000000002     2     1     9     9
 0.0000000001     2     1    10     2
 -0.0782703798     2     1    10     3
 -0.0000000005     2     1    10     4
 0.0088180308     2     1    10     5
 0.0000000005     2     1    10    10
 0.4411447222     2     2     1     1
 -0.0074408212     2     2     1     3
 0.0138451650     2     2     1     5
 -0.0000000001     2     2     1    10
 -0.0074408212     2     2     3     1
 0.7572868056     2     2     3     3
 0.0000000008     2     2     3     4
 -0.0908967296     2     2     3     5
 0.0000000032     2     2     3    10
 0.0000000008     2     2     4     3
 0.6297073264     2     2     4     4
 -0.0000000002     2     2     4     5
 0.0924907863     2     2     4    10
 0.0138451650     2     2     5     1
 -0.0908967296     2     2     5     3
 -0.0000000002     2     2     5     4
 0.6668333876     2     2     5     5
 -0.0000000084     2     2     5    10
 0.6590824929     2     2     6     6
 0.0000000001     2     2     6     7
 0.0000000004     2     2     6     8
 0.0000000002     2     2     6     9
 0.0000000001     2     2     7     6
 0.6590824938     2     2     7     7
 0.0000000028     2     2     7     8
 0.0000000028     2     2     7     9
 0.0000000004     2     2     8     6
 0.0000000028     2     2     8     7
 0.5893780593     2     2     8     8
 0.0000000002     2     2     8     9
 0.0000000002     2     2     9     6
 0.0000000028     2     2     9     7
 0.0000000002     2     2     9     8
 0.5893780593     2     2     9     9
 -0.0000000001     2     2    10     1
 0.0000000032     2     2    10     3
 0.0924907863     2     2    10     4
 -0.0000000084     2     2    10     5
 0.3319193587     2     2    10    10
 0.0074408212     2     3     1     2
 -0.0002035957     2     3     1     4
 -0.0000000001     2     3     1     5
 0.0000389268     2     3     1    10
 -0.7572868056     2     3     3     2
 0.0099014752     2     3     3     4
 -0.0000000002     2     3     3     5
 -0.0009670428     2     3     3    10
 0.1687308299     2     3     4     1
 -0.0000000008     2     3     4     2
 -0.0000000001     2     3     4     4
 -0.0150498342     2     3     4     5
 -0.0000000002     2     3     4    10
 -0.0000000007     2     3     5     1
 0.0908967296     2     3     5     2
 -0.0200460475     2     3     5     4
 -0.0000000001     2     3     5     5
 -0.0002141471     2     3     5    10
 -0.0000000012     2     3     6     6
 0.0000000001     2     3     6     7
 0.0159522508     2     3     6     8
 -0.0132292268     2     3     6     9
 0.0000000001     2     3     7     6
 -0.0000000002     2     3     7     7
 0.0132292267     2     3     7     8
 0.0159522507     2     3     7     9
 0.0109291170     2     3     8     6
 0.0090635339     2     3     8     7
 -0.0000000003     2     3     8     8
 -0.0000000002     2     3     8     9
 -0.0090635340     2     3     9     6
 0.0109291169     2     3     9     7
 -0.0000000002     2     3     9     8
 -0.0000000003     2     3     9     9
 0.0782703798     2     3    10     1
 -0.0000000032     2     3    10     2
 -0.0000000004     2     3    10     4
 0.0012285316     2     3    10     5
 0.0000000399     2     3    10    10
 -0.0057951208     2     4     1     1
 0.0002035957     2     4     1     3
 -0.0003677875     2     4     1     5
 0.0000000001     2     4     1    10
 0.1689364454     2     4     3     1
 -0.0000000008     2     4     3     2
 -0.0099014752     2     4     3     3
 0.0049894180     2     4     3     5
 0.0000000008     2     4     3    10
 -0.0000000002     2     4     4     1
 -0.6297073264     2     4     4     2
 0.0000000001     2     4     4     3
 0.0012546062     2     4     4    10
 0.2290348709     2     4     5     1
 0.0000000002     2     4     5     2
 0.0200460475     2     4     5     3
 -0.0205983606     2     4     5     5
 -0.0000000016     2     4     5    10
 -0.0196708863     2     4     6     6
 0.0000000003     2     4     6     8
 -0.0000000003     2     4     6     9
 -0.0196708867     2     4     7     7
 -0.0000000003     2     4     7     8
 -0.0000000002     2     4     7     9
 0.0000000006     2     4     8     6
 -0.0000000002     2     4     8     7
 -0.0175410078     2     4     8     8
 -0.0000000002     2     4     8     9
 -0.0000000006     2     4     9     6
 -0.0000000001     2     4     9     7
 -0.0000000002     2     4     9     8
 -0.0175410078     2     4     9     9
 0.0000000005     2     4    10     1
 -0.0924907863     2     4    10     2
 0.0000000004     2     4    10     3
 0.0000000001     2     4    10     5
 -0.0007463344     2     4    10    10
 -0.0000000001     2     5     1     1
 -0.0138451650     2     5     1     2
 0.0000000001     2     5     1     3
 0.0003677875     2     5     1     4
 -0.0000591433     2     5     1    10
 -0.0000000006     2     5     3     1
 0.0908967296     2     5     3     2
 0.0000000002     2     5     3     3
 -0.0049894180     2     5     3     4
 -0.0013964390     2     5     3    10
 0.2294018142     2     5     4     1
 0.0000000002     2     5     4     2
 0.0150498342     2     5     4     3
 -0.0000000003     2     5     4    10
 0.0000000019     2     5     5     1
 -0.6668333876     2     5     5     2
 0.0000000001     2     5     5     3
 0.0205983606     2     5     5     4
 0.0053267307     2     5     5    10
 -0.0000000001     2     5     6     6
 0.0002798298     2     5     6     8
 -0.0002320633     2     5     6     9
 0.0002320634     2     5     7     8
 0.0002798298     2     5     7     9
 0.0016621963     2     5     8     6
 0.0013784621     2     5     8     7
 -0.0000000001     2     5     8     8
 -0.0000000001     2     5     8     9
 -0.0013784621     2     5     9     6
 0.0016621963     2     5     9     7
 -0.0000000001     2     5     9     8
 -0.0000000001     2     5     9     9
 -0.0088180308     2     5    10     1
 0.0000000084     2     5    10     2
 -0.0012285316     2     5    10     3
 -0.0000000001     2     5    10     4
 -0.0000000060     2     5    10    10
 -0.0002752767     2     6     1     8
 0.0002282874     2     6     1     9
 0.0038425891     2     6     3     8
 -0.0031866652     2     6     3     9
 -0.0000000001     2     6     4     8
 0.0000000001     2     6     4     9
 -0.0010827920     2     6     5     8
 0.0008979612     2     6     5     9
 -0.0000000022     2     6     6     1
 -0.6590824929     2     6     6     2
 0.0000000012     2     6     6     3
 0.0196708863     2     6     6     4
 0.0000000001     2     6     6     5
 0.0067165313     2     6     6    10
 -0.0000000001     2     6     7     2
 -0.0000000001     2     6     7     3
 -0.1476985320     2     6     8     1
 -0.0000000004     2     6     8     2
 -0.0109291170     2     6     8     3
 -0.0000000006     2     6     8     4
 -0.0016621963     2     6     8     5
 -0.0000000024     2     6     8    10
 0.1224866266     2     6     9     1
 -0.0000000002     2     6     9     2
 0.0090635340     2     6     9     3
 0.0000000006     2     6     9     4
 0.0013784621     2     6     9     5
 0.0000000029     2     6     9    10
 -0.0000000021     2     6    10     8
 0.0000000026     2     6    10     9
 -0.0002282874     2     7     1     8
 -0.0002752767     2     7     1     9
 0.0031866652     2     7     3     8
 0.0038425891     2     7     3     9
 0.0000000001     2     7     4     8
 0.0000000001     2     7     4     9
 -0.0008979612     2     7     5     8
 -0.0010827921     2     7     5     9
 -0.0000000001     2     7     6     2
 -0.0000000001     2     7     6     3
 -0.0000000019     2     7     7     1
 -0.6590824938     2     7     7     2
 0.0000000002     2     7     7     3
 0.0196708867     2     7     7     4
 0.0067165315     2     7     7    10
 -0.1224866265     2     7     8     1
 -0.0000000028     2     7     8     2
 -0.0090635339     2     7     8     3
 0.0000000002     2     7     8     4
 -0.0013784621     2     7     8     5
 0.0000000029     2     7     8    10
 -0.1476985320     2     7     9     1
 -0.0000000028     2     7     9     2
 -0.0109291169     2     7     9     3
 0.0000000001     2     7     9     4
 -0.0016621963     2     7     9     5
 0.0000000023     2     7     9    10
 0.0000000027     2     7    10     8
 0.0000000022     2     7    10     9
 0.0002752767     2     8     1     6
 0.0002282874     2     8     1     7
 -0.0038425891     2     8     3     6
 -0.0031866652     2     8     3     7
 0.0000000001     2     8     4     6
 -0.0000000001     2     8     4     7
 0.0010827920     2     8     5     6
 0.0008979612     2     8     5     7
 -0.1474028124     2     8     6     1
 -0.0000000004     2     8     6     2
 -0.0159522508     2     8     6     3
 -0.0000000003     2     8     6     4
 -0.0002798298     2     8     6     5
 -0.0000000002     2     8     6    10
 -0.1222413858     2     8     7     1
 -0.0000000028     2     8     7     2
 -0.0132292267     2     8     7     3
 0.0000000003     2     8     7     4
 -0.0002320634     2     8     7     5
 -0.0000000002     2     8     7    10
 -0.0000000002     2     8     8     1
 -0.5893780593     2     8     8     2
 0.0000000003     2     8     8     3
 0.0175410078     2     8     8     4
 0.0000000001     2     8     8     5
 0.0069633120     2     8     8    10
 0.0000000001     2     8     9     1
 -0.0000000002     2     8     9     2
 0.0000000002     2     8     9     3
 0.0000000002     2     8     9     4
 0.0000000001     2     8     9     5
 0.0000000001     2     8     9    10
 0.0000000021     2     8    10     6
 -0.0000000027     2     8    10     7
 -0.0002282874     2     9     1     6
 0.0002752767     2     9     1     7
 0.0031866652     2     9     3     6
 -0.0038425891     2     9     3     7
 -0.0000000001     2     9     4     6
 -0.0000000001     2     9     4     7
 -0.0008979612     2     9     5     6
 0.0010827921     2     9     5     7
 0.1222413858     2     9     6     1
 -0.0000000002     2     9     6     2
 0.0132292268     2     9     6     3
 0.0000000003     2     9     6     4
 0.0002320633     2     9     6     5
 0.0000000002     2     9     6    10
 -0.1474028123     2     9     7     1
 -0.0000000028     2     9     7     2
 -0.0159522507     2     9     7     3
 0.0000000002     2     9     7     4
 -0.0002798298     2     9     7     5
 -0.0000000002     2     9     7    10
 0.0000000001     2     9     8     1
 -0.0000000002     2     9     8     2
 0.0000000002     2     9     8     3
 0.0000000002     2     9     8     4
 0.0000000001     2     9     8     5
 0.0000000001     2     9     8    10
 -0.0000000002     2     9     9     1
 -0.5893780593     2     9     9     2
 0.0000000003     2     9     9     3
 0.0175410078     2     9     9     4
 0.0000000001     2     9     9     5
 0.0069633120     2     9     9    10
 -0.0000000026     2     9    10     6
 -0.0000000022     2     9    10     7
 0.0009573106     2    10     1     1
 0.0000000001     2    10     1     2
 -0.0000389268     2    10     1     3
 -0.0000000001     2    10     1     4
 0.0000591433     2    10     1     5
 0.0782194622     2    10     3     1
 -0.0000000032     2    10     3     2
 0.0009670428     2    10     3     3
 -0.0000000008     2    10     3     4
 0.0013964390     2    10     3     5
 0.0000000004     2    10     4     1
 -0.0924907863     2    10     4     2
 0.0000000002     2    10     4     3
 -0.0012546062     2    10     4     4
 0.0000000003     2    10     4     5
 -0.0087687809     2    10     5     1
 0.0000000084     2    10     5     2
 0.0002141471     2    10     5     3
 0.0000000016     2    10     5     4
 -0.0053267307     2    10     5     5
 -0.0067165313     2    10     6     6
 0.0000000002     2    10     6     8
 -0.0000000002     2    10     6     9
 -0.0067165315     2    10     7     7
 0.0000000002     2    10     7     8
 0.0000000002     2    10     7     9
 0.0000000024     2    10     8     6
 -0.0000000029     2    10     8     7
 -0.0069633120     2    10     8     8
 -0.0000000001     2    10     8     9
 -0.0000000029     2    10     9     6
 -0.0000000023     2    10     9     7
 -0.0000000001     2    10     9     8
 -0.0069633120     2    10     9     9
 -0.0000000005     2    10    10     1
 -0.3319193587     2    10    10     2
 -0.0000000399     2    10    10     3
 0.0007463344     2    10    10     4
 0.0000000060     2    10    10     5
 -0.7571400388     3     1     1     3
 -0.0000000007     3     1     1     4
 0.0904872464     3     1     1     5
 -0.0000000033     3     1     1    10
 -0.0074408212     3     1     2     2
 0.1689364454     3     1     2     4
 -0.0000000006     3     1     2     5
 0.0782194622     3     1     2    10
 0.0002035957     3     1     4     2
 0.0076431040     3     1     4     4
 -0.0000000003     3     1     4     5
 -0.0015595095     3     1     4    10
 0.0000000001     3     1     5     2
 -0.0189266406     3     1     5     3
 -0.0000000001     3     1     5     4
 0.0240036518     3     1     5     5
 0.0000000008     3     1     5    10
 0.0175707930     3     1     6     6
 -0.0000000006     3     1     6     8
 0.0000000006     3     1     6     9
 0.0175707932     3     1     7     7
 0.0000000001     3     1     7     8
 -0.0000000004     3     1     8     6
 0.0000000001     3     1     8     7
 0.0138672040     3     1     8     8
 0.0000000001     3     1     8     9
 0.0000000003     3     1     9     6
 0.0000000001     3     1     9     8
 0.0138672040     3     1     9     9
 -0.0000389268     3     1    10     2
 -0.0000000013     3     1    10     3
 -0.0007897196     3     1    10     4
 0.0000000031     3     1    10     5
 0.0005117537     3     1    10    10
 0.1687308299     3     2     1     4
 -0.0000000007     3     2     1     5
 0.0782703798     3     2     1    10
 0.0074408212     3     2     2     1
 -0.7572868056     3     2     2     3
 -0.0000000008     3     2     2     4
 0.0908967296     3     2     2     5
 -0.0000000032     3     2     2    10
 -0.0002035957     3     2     4     1
 0.0099014752     3     2     4     3
 -0.0000000001     3     2     4     4
 -0.0200460475     3     2     4     5
 -0.0000000004     3     2     4    10
 -0.0000000001     3     2     5     1
 -0.0000000002     3     2     5     3
 -0.0150498342     3     2     5     4
 -0.0000000001     3     2     5     5
 0.0012285316     3     2     5    10
 -0.0000000012     3     2     6     6
 0.0000000001     3     2     6     7
 0.0109291170     3     2     6     8
 -0.0090635340     3     2     6     9
 0.0000000001     3     2     7     6
 -0.0000000002     3     2     7     7
 0.0090635339     3     2     7     8
 0.0109291169     3     2     7     9
 0.0159522508     3     2     8     6
 0.0132292267     3     2     8     7
 -0.0000000003     3     2     8     8
 -0.0000000002     3     2     8     9
 -0.0132292268     3     2     9     6
 0.0159522507     3     2     9     7
 -0.0000000002     3     2     9     8
 -0.0000000003     3     2     9     9
 0.0000389268     3     2    10     1
 -0.0009670428     3     2    10     3
 -0.0000000002     3     2    10     4
 -0.0002141471     3     2    10     5
 0.0000000399     3     2    10    10
 0.7571400388     3     3     1     1
 0.0189266406     3     3     1     5
 0.0000000013     3     3     1    10
 0.7572868056     3     3     2     2
 -0.0099014752     3     3     2     4
 0.0000000002     3     3     2     5