&FCI NORB= 10,NELEC= 14,MS2=0,
 ORBSYM=1,1,1,1,1,1,1,1,1,1
 ISYM=1,
&END
 0.3780708409     1     1     2     2
 0.0033643122     1     1     2     4
 -0.0051990876     1     1     2    10
 0.6860771018     1     1     3     3
 -0.0000000007     1     1     3     4
 0.0658133065     1     1     3     5
 -0.0000000001     1     1     3    10
 0.0033643122     1     1     4     2
 -0.0000000007     1     1     4     3
 0.6184758663     1     1     4     4
 0.0000000007     1     1     4     5
 0.0815186769     1     1     4    10
 0.0658133065     1     1     5     3
 0.0000000007     1     1     5     4
 0.6469461081     1     1     5     5
 0.0000000010     1     1     5    10
 0.6231972546     1     1     6     6
 -0.0000000001     1     1     6     7
 0.0000000029     1     1     6     9
 -0.0000000001     1     1     7     6
 0.6231972544     1     1     7     7
 0.0000000012     1     1     7     8
 -0.0000000011     1     1     7     9
 0.0000000012     1     1     8     7
 0.5934026752     1     1     8     8
 0.0000000029     1     1     9     6
 -0.0000000011     1     1     9     7
 0.5934026753     1     1     9     9
 -0.0051990876     1     1    10     2
 -0.0000000001     1     1    10     3
 0.0815186769     1     1    10     4
 0.0000000010     1     1    10     5
 0.4698153068     1     1    10    10
 -0.3780708409     1     2     2     1
 -0.0038680126     1     2     2     3
 -0.0099479066     1     2     2     5
 -0.0000000002     1     2     3     3
 -0.2176945426     1     2     3     4
 0.0000000004     1     2     3     5
 -0.1229230421     1     2     3    10
 -0.0033643122     1     2     4     1
 -0.2177769265     1     2     4     3
 0.0000000003     1     2     4     4
 0.2092907844     1     2     4     5
 0.0000000003     1     2     5     3
 0.2094712545     1     2     5     4
 0.0000000007     1     2     5     5
 -0.1088611566     1     2     5    10
 -0.0000000003     1     2     6     6
 -0.1300152729     1     2     6     8
 0.1796730523     1     2     6     9
 -0.0000000002     1     2     7     7
 -0.1796730520     1     2     7     8
 -0.1300152730     1     2     7     9
 -0.1298740373     1     2     8     6
 -0.1794778730     1     2     8     7
 0.0000000002     1     2     8     8
 0.1794778733     1     2     9     6
 -0.1298740373     1     2     9     7
 0.0000000002     1     2     9     9
 0.0051990876     1     2    10     1
 -0.1228078072     1     2    10     3
 -0.1085981925     1     2    10     5
 0.0038680126     1     3     2     2
 0.0000771107     1     3     2     4
 -0.0000000001     1     3     2     5
 -0.0001100702     1     3     2    10
 -0.6860771018     1     3     3     1
 0.0000000002     1     3     3     2
 0.0000000005     1     3     3     4
 -0.0134978642     1     3     3     5
 -0.0000000005     1     3     3    10
 0.0000000007     1     3     4     1
 0.2177769265     1     3     4     2
 -0.0048500026     1     3     4     4
 0.0000000002     1     3     4     5
 0.0049839450     1     3     4    10
 -0.0658133065     1     3     5     1
 -0.0000000003     1     3     5     2
 0.0000000008     1     3     5     4
 -0.0227422779     1     3     5     5
 -0.0000000011     1     3     5    10
 -0.0177987399     1     3     6     6
 0.0000000002     1     3     6     7
 0.0000000003     1     3     6     8
 -0.0000000011     1     3     6     9
 0.0000000002     1     3     7     6
 -0.0177987396     1     3     7     7
 0.0000000001     1     3     7     8
 0.0000000006     1     3     7     9
 0.0000000002     1     3     8     6
 -0.0155769727     1     3     8     8
 0.0000000001     1     3     8     9
 -0.0000000010     1     3     9     6
 0.0000000005     1     3     9     7
 0.0000000001     1     3     9     8
 -0.0155769732     1     3     9     9
 0.0000000001     1     3    10     1
 0.1228078072     1     3    10     2
 0.0057213050     1     3    10     4
 -0.0000000018     1     3    10     5
 -0.0037803737     1     3    10    10
 -0.0033643122     1     4     2     1
 -0.0000771107     1     4     2     3
 -0.0001803048     1     4     2     5
 0.0000000007     1     4     3     1
 0.2176945426     1     4     3     2
 -0.0000000005     1     4     3     3
 -0.0000000005     1     4     3     5
 -0.0011309923     1     4     3    10
 -0.6184758663     1     4     4     1
 -0.0000000003     1     4     4     2
 0.0048500026     1     4     4     3
 0.0029058400     1     4     4     5
 0.0000000001     1     4     4    10
 -0.0000000007     1     4     5     1
 -0.2094712545     1     4     5     2
 -0.0000000008     1     4     5     3
 -0.0000000006     1     4     5     5
 -0.0130144157     1     4     5    10
 0.0000000008     1     4     6     6
 -0.0085218893     1     4     6     8
 0.0117767230     1     4     6     9
 0.0000000008     1     4     7     7
 -0.0117767230     1     4     7     8
 -0.0085218893     1     4     7     9
 -0.0085588395     1     4     8     6
 -0.0118277860     1     4     8     7
 0.0000000009     1     4     8     8
 0.0118277860     1     4     9     6
 -0.0085588395     1     4     9     7
 0.0000000007     1     4     9     9
 -0.0815186769     1     4    10     1
 -0.0057213050     1     4    10     3
 -0.0084972440     1     4    10     5
 0.0000000006     1     4    10    10
 0.0099479066     1     5     2     2
 0.0000000001     1     5     2     3
 0.0001803048     1     5     2     4
 -0.0002748245     1     5     2    10
 -0.0658133065     1     5     3     1
 -0.0000000004     1     5     3     2
 0.0134978642     1     5     3     3
 0.0000000005     1     5     3     4
 0.0000000002     1     5     3    10
 -0.0000000007     1     5     4     1
 -0.2092907844     1     5     4     2
 -0.0000000002     1     5     4     3
 -0.0029058400     1     5     4     4
 -0.0036988765     1     5     4    10
 -0.6469461081     1     5     5     1
 -0.0000000007     1     5     5     2
 0.0227422779     1     5     5     3
 0.0000000006     1     5     5     4
 0.0000000005     1     5     5    10
 0.0106592064     1     5     6     6
 0.0000000002     1     5     6     9
 0.0106592064     1     5     7     7
 0.0000000002     1     5     7     8
 -0.0000000001     1     5     7     9
 0.0000000001     1     5     8     7
 0.0078078661     1     5     8     8
 0.0000000001     1     5     9     6
 0.0078078661     1     5     9     9
 -0.0000000010     1     5    10     1
 0.1085981925     1     5    10     2
 0.0000000018     1     5    10     3
 0.0084972440     1     5    10     4
 0.0086398660     1     5    10    10
 -0.0001319807     1     6     2     8
 0.0001823892     1     6     2     9
 0.0000000001     1     6     3     8
 -0.0000000001     1     6     3     9
 0.0006819428     1     6     4     8
 -0.0009424026     1     6     4     9
 0.0000000001     1     6     5     8
 -0.0000000002     1     6     5     9
 -0.6231972546     1     6     6     1
 0.0000000003     1     6     6     2
 0.0177987399     1     6     6     3
 -0.0000000008     1     6     6     4
 -0.0106592064     1     6     6     5
 -0.0000000001     1     6     6    10
 0.0000000001     1     6     7     1
 -0.0000000002     1     6     7     3
 -0.0000000001     1     6     7    10
 0.1298740373     1     6     8     2
 -0.0000000002     1     6     8     3
 0.0085588395     1     6     8     4
 0.0061013245     1     6     8    10
 -0.0000000029     1     6     9     1
 -0.1794778733     1     6     9     2
 0.0000000010     1     6     9     3
 -0.0118277860     1     6     9     4
 -0.0000000001     1     6     9     5
 -0.0084316525     1     6     9    10
 0.0002206814     1     6    10     8
 -0.0003049680     1     6    10     9
 -0.0001823892     1     7     2     8
 -0.0001319807     1     7     2     9
 0.0000000001     1     7     3     9
 0.0009424026     1     7     4     8
 0.0006819428     1     7     4     9
 0.0000000001     1     7     5     8
 0.0000000001     1     7     5     9
 0.0000000001     1     7     6     1
 -0.0000000002     1     7     6     3
 -0.0000000001     1     7     6    10
 -0.6231972544     1     7     7     1
 0.0000000002     1     7     7     2
 0.0177987396     1     7     7     3
 -0.0000000008     1     7     7     4
 -0.0106592064     1     7     7     5
 -0.0000000002     1     7     7    10
 -0.0000000012     1     7     8     1
 0.1794778730     1     7     8     2
 0.0118277860     1     7     8     4
 -0.0000000001     1     7     8     5
 0.0084316525     1     7     8    10
 0.0000000011     1     7     9     1
 0.1298740373     1     7     9     2
 -0.0000000005     1     7     9     3
 0.0085588395     1     7     9     4
 0.0061013245     1     7     9    10
 0.0003049680     1     7    10     8
 0.0002206814     1     7    10     9
 0.0001319807     1     8     2     6
 0.0001823892     1     8     2     7
 -0.0000000001     1     8     3     6
 -0.0006819428     1     8     4     6
 -0.0009424026     1     8     4     7
 -0.0000000001     1     8     5     6
 -0.0000000001     1     8     5     7
 0.1300152729     1     8     6     2
 -0.0000000003     1     8     6     3
 0.0085218893     1     8     6     4
 0.0059713753     1     8     6    10
 -0.0000000012     1     8     7     1
 0.1796730520     1     8     7     2
 -0.0000000001     1     8     7     3
 0.0117767230     1     8     7     4
 -0.0000000002     1     8     7     5
 0.0082520706     1     8     7    10
 -0.5934026752     1     8     8     1
 -0.0000000002     1     8     8     2
 0.0155769727     1     8     8     3
 -0.0000000009     1     8     8     4
 -0.0078078661     1     8     8     5
 -0.0000000013     1     8     8    10
 -0.0000000001     1     8     9     3
 -0.0002206814     1     8    10     6
 -0.0003049680     1     8    10     7
 -0.0001823892     1     9     2     6
 0.0001319807     1     9     2     7
 0.0000000001     1     9     3     6
 -0.0000000001     1     9     3     7
 0.0009424026     1     9     4     6
 -0.0006819428     1     9     4     7
 0.0000000002     1     9     5     6
 -0.0000000001     1     9     5     7
 -0.0000000029     1     9     6     1
 -0.1796730523     1     9     6     2
 0.0000000011     1     9     6     3
 -0.0117767230     1     9     6     4
 -0.0000000002     1     9     6     5
 -0.0082520706     1     9     6    10
 0.0000000011     1     9     7     1
 0.1300152730     1     9     7     2
 -0.0000000006     1     9     7     3
 0.0085218893     1     9     7     4
 0.0000000001     1     9     7     5
 0.0059713753     1     9     7    10
 -0.0000000001     1     9     8     3
 -0.5934026753     1     9     9     1
 -0.0000000002     1     9     9     2
 0.0155769732     1     9     9     3
 -0.0000000007     1     9     9     4
 -0.0078078661     1     9     9     5
 -0.0000000013     1     9     9    10
 0.0003049680     1     9    10     6
 -0.0002206814     1     9    10     7
 0.0051990876     1    10     2     1
 0.0001100702     1    10     2     3
 0.0002748245     1    10     2     5
 0.0000000001     1    10     3     1
 0.1229230421     1    10     3     2
 0.0000000005     1    10     3     3
 0.0011309923     1    10     3     4
 -0.0000000002     1    10     3     5
 -0.0815186769     1    10     4     1
 -0.0049839450     1    10     4     3
 -0.0000000001     1    10     4     4
 0.0036988765     1    10     4     5
 -0.0000000010     1    10     5     1
 0.1088611566     1    10     5     2
 0.0000000011     1    10     5     3
 0.0130144157     1    10     5     4
 -0.0000000005     1    10     5     5
 0.0000000001     1    10     6     6
 0.0000000001     1    10     6     7
 -0.0059713753     1    10     6     8
 0.0082520706     1    10     6     9
 0.0000000001     1    10     7     6
 0.0000000002     1    10     7     7
 -0.0082520706     1    10     7     8
 -0.0059713753     1    10     7     9
 -0.0061013245     1    10     8     6
 -0.0084316525     1    10     8     7
 0.0000000013     1    10     8     8
 0.0084316525     1    10     9     6
 -0.0061013245     1    10     9     7
 0.0000000013     1    10     9     9
 -0.4698153068     1    10    10     1
 0.0037803737     1    10    10     3
 -0.0000000006     1    10    10     4
 -0.0086398660     1    10    10     5
 -0.3780708409     2     1     1     2
 -0.0033643122     2     1     1     4
 0.0051990876     2     1     1    10
 -0.0038680126     2     1     3     2
 -0.0000000002     2     1     3     3
 -0.2177769265     2     1     3     4
 0.0000000003     2     1     3     5
 -0.1228078072     2     1     3    10
 -0.2176945426     2     1     4     3
 0.0000000003     2     1     4     4
 0.2094712545     2     1     4     5
 -0.0099479066     2     1     5     2
 0.0000000004     2     1     5     3
 0.2092907844     2     1     5     4
 0.0000000007     2     1     5     5
 -0.1085981925     2     1     5    10
 -0.0000000003     2     1     6     6
 -0.1298740373     2     1     6     8
 0.1794778733     2     1     6     9
 -0.0000000002     2     1     7     7
 -0.1794778730     2     1     7     8
 -0.1298740373     2     1     7     9
 -0.1300152729     2     1     8     6
 -0.1796730520     2     1     8     7
 0.0000000002     2     1     8     8
 0.1796730523     2     1     9     6
 -0.1300152730     2     1     9     7
 0.0000000002     2     1     9     9
 -0.1229230421     2     1    10     3
 -0.1088611566     2     1    10     5
 0.3780708409     2     2     1     1
 0.0038680126     2     2     1     3
 0.0099479066     2     2     1     5
 0.0038680126     2     2     3     1
 0.6861171879     2     2     3     3
 0.0000000005     2     2     3     4
 0.0659871639     2     2     3     5
 0.0000000006     2     2     3    10
 0.0000000005     2     2     4     3
 0.6184329656     2     2     4     4
 -0.0000000003     2     2     4     5
 0.0815865236     2     2     4    10
 0.0099479066     2     2     5     1
 0.0659871639     2     2     5     3
 -0.0000000003     2     2     5     4
 0.6474813637     2     2     5     5
 0.0000000016     2     2     5    10
 0.6234488113     2     2     6     6
 -0.0000000001     2     2     6     7
 0.0000000006     2     2     6     8
 0.0000000019     2     2     6     9
 -0.0000000001     2     2     7     6
 0.6234488112     2     2     7     7
 0.0000000021     2     2     7     8
 -0.0000000005     2     2     7     9
 0.0000000006     2     2     8     6
 0.0000000021     2     2     8     7
 0.5932309946     2     2     8     8
 0.0000000019     2     2     9     6
 -0.0000000005     2     2     9     7
 0.5932309947     2     2     9     9
 0.0000000006     2     2    10     3
 0.0815865236     2     2    10     4
 0.0000000016     2     2    10     5
 0.4696755840     2     2    10    10
 -0.0038680126     2     3     1     2
 -0.0000771107     2     3     1     4
 0.0000000001     2     3     1     5
 0.0001100702     2     3     1    10
 0.0000000002     2     3     3     1
 -0.6861171879     2     3     3     2
 -0.0053769495     2     3     3     4
 0.0000000006     2     3     3     5
 0.0078830340     2     3     3    10
 0.2176945426     2     3     4     1
 -0.0000000005     2     3     4     2
 -0.0000000001     2     3     4     4
 -0.0112712851     2     3     4     5
 -0.0000000001     2     3     4    10
 -0.0000000004     2     3     5     1
 -0.0659871639     2     3     5     2
 -0.0145527470     2     3     5     4
 0.0000000009     2     3     5     5
 0.0106878874     2     3     5    10
 -0.0000000007     2     3     6     6
 0.0114539797     2     3     6     8
 -0.0158286903     2     3     6     9
 -0.0000000006     2     3     7     7
 0.0158286903     2     3     7     8
 0.0114539797     2     3     7     9
 0.0086263140     2     3     8     6
 0.0119210316     2     3     8     7
 -0.0000000008     2     3     8     8
 -0.0119210315     2     3     9     6
 0.0086263140     2     3     9     7
 -0.0000000006     2     3     9     9
 0.1229230421     2     3    10     1
 -0.0000000006     2     3    10     2
 -0.0000000010     2     3    10     4
 0.0088092043     2     3    10     5
 -0.0000000038     2     3    10    10
 0.0033643122     2     4     1     1
 0.0000771107     2     4     1     3
 0.0001803048     2     4     1     5
 0.2177769265     2     4     3     1
 -0.0000000005     2     4     3     2
 0.0053769495     2     4     3     3
 0.0032918717     2     4     3     5
 0.0000000006     2     4     3    10
 -0.0000000003     2     4     4     1
 -0.6184329656     2     4     4     2
 0.0000000001     2     4     4     3
 -0.0000000002     2     4     4     5
 -0.0031215028     2     4     4    10
 -0.2092907844     2     4     5     1
 0.0000000003     2     4     5     2
 0.0145527470     2     4     5     3
 0.0203283259     2     4     5     5
 0.0000000014     2     4     5    10
 0.0192310794     2     4     6     6
 -0.0000000001     2     4     6     7
 -0.0000000002     2     4     6     8
 0.0000000010     2     4     6     9
 -0.0000000001     2     4     7     6
 0.0192310792     2     4     7     7
 0.0000000001     2     4     7     8
 -0.0000000005     2     4     7     9
 -0.0000000002     2     4     8     6
 0.0000000002     2     4     8     7
 0.0190060940     2     4     8     8
 -0.0000000001     2     4     8     9
 0.0000000009     2     4     9     6
 -0.0000000004     2     4     9     7
 -0.0000000001     2     4     9     8
 0.0190060944     2     4     9     9
 -0.0815865236     2     4    10     2
 0.0000000010     2     4    10     3
 0.0000000016     2     4    10     5
 0.0091295669     2     4    10    10
 -0.0099479066     2     5     1     2
 -0.0000000001     2     5     1     3
 -0.0001803048     2     5     1     4
 0.0002748245     2     5     1    10
 -0.0000000003     2     5     3     1
 -0.0659871639     2     5     3     2
 -0.0000000006     2     5     3     3
 -0.0032918717     2     5     3     4
 0.0013410719     2     5     3    10
 -0.2094712545     2     5     4     1
 0.0000000003     2     5     4     2
 0.0112712851     2     5     4     3
 0.0000000002     2     5     4     4
 0.0000000001     2     5     4    10
 -0.0000000007     2     5     5     1
 -0.6474813637     2     5     5     2
 -0.0000000009     2     5     5     3
 -0.0203283259     2     5     5     4
 -0.0058360977     2     5     5    10
 0.0000000003     2     5     6     6
 -0.0005378525     2     5     6     8
 0.0007432789     2     5     6     9
 0.0000000003     2     5     7     7
 -0.0007432789     2     5     7     8
 -0.0005378526     2     5     7     9
 -0.0013780229     2     5     8     6
 -0.0019043423     2     5     8     7
 0.0000000003     2     5     8     8
 0.0019043423     2     5     9     6
 -0.0013780229     2     5     9     7
 0.0000000003     2     5     9     9
 0.1088611566     2     5    10     1
 -0.0000000016     2     5    10     2
 -0.0088092043     2     5    10     3
 -0.0000000016     2     5    10     4
 -0.0000000034     2     5    10    10
 0.0001319807     2     6     1     8
 -0.0001823892     2     6     1     9
 0.0021612724     2     6     3     8
 -0.0029867445     2     6     3     9
 0.0000000001     2     6     4     9
 0.0007591825     2     6     5     8
 -0.0010491433     2     6     5     9
 0.0000000003     2     6     6     1
 -0.6234488113     2     6     6     2
 0.0000000007     2     6     6     3
 -0.0192310794     2     6     6     4
 -0.0000000003     2     6     6     5
 -0.0055680592     2     6     6    10
 0.0000000001     2     6     7     2
 0.0000000001     2     6     7     4
 0.0000000001     2     6     7    10
 0.1300152729     2     6     8     1
 -0.0000000006     2     6     8     2
 -0.0086263140     2     6     8     3
 0.0000000002     2     6     8     4
 0.0013780229     2     6     8     5
 -0.0000000018     2     6     8    10
 -0.1796730523     2     6     9     1
 -0.0000000019     2     6     9     2
 0.0119210315     2     6     9     3
 -0.0000000009     2     6     9     4
 -0.0019043423     2     6     9     5
 0.0000000023     2     6     9    10
 -0.0000000021     2     6    10     8
 0.0000000028     2     6    10     9
 0.0001823892     2     7     1     8
 0.0001319807     2     7     1     9
 0.0029867445     2     7     3     8
 0.0021612724     2     7     3     9
 0.0010491433     2     7     5     8
 0.0007591825     2     7     5     9
 0.0000000001     2     7     6     2
 0.0000000001     2     7     6     4
 0.0000000001     2     7     6    10
 0.0000000002     2     7     7     1
 -0.6234488112     2     7     7     2
 0.0000000006     2     7     7     3
 -0.0192310792     2     7     7     4
 -0.0000000003     2     7     7     5
 -0.0055680590     2     7     7    10
 0.1796730520     2     7     8     1
 -0.0000000021     2     7     8     2
 -0.0119210316     2     7     8     3
 -0.0000000002     2     7     8     4
 0.0019043423     2     7     8     5
 -0.0000000027     2     7     8    10
 0.1300152730     2     7     9     1
 0.0000000005     2     7     9     2
 -0.0086263140     2     7     9     3
 0.0000000004     2     7     9     4
 0.0013780229     2     7     9     5
 -0.0000000018     2     7     9    10
 -0.0000000028     2     7    10     8
 -0.0000000020     2     7    10     9
 -0.0001319807     2     8     1     6
 -0.0001823892     2     8     1     7
 -0.0021612724     2     8     3     6
 -0.0029867445     2     8     3     7
 -0.0007591825     2     8     5     6
 -0.0010491433     2     8     5     7
 0.1298740373     2     8     6     1
 -0.0000000006     2     8     6     2
 -0.0114539797     2     8     6     3
 0.0000000002     2     8     6     4
 0.0005378525     2     8     6     5
 0.0000000001     2     8     6    10
 0.1794778730     2     8     7     1
 -0.0000000021     2     8     7     2
 -0.0158286903     2     8     7     3
 -0.0000000001     2     8     7     4
 0.0007432789     2     8     7     5
 -0.0000000001     2     8     7    10
 -0.0000000002     2     8     8     1
 -0.5932309946     2     8     8     2
 0.0000000008     2     8     8     3
 -0.0190060940     2     8     8     4
 -0.0000000003     2     8     8     5
 -0.0082193100     2     8     8    10
 0.0000000001     2     8     9     4
 0.0000000021     2     8    10     6
 0.0000000028     2     8    10     7
 0.0001823892     2     9     1     6
 -0.0001319807     2     9     1     7
 0.0029867445     2     9     3     6
 -0.0021612724     2     9     3     7
 -0.0000000001     2     9     4     6
 0.0010491433     2     9     5     6
 -0.0007591825     2     9     5     7
 -0.1794778733     2     9     6     1
 -0.0000000019     2     9     6     2
 0.0158286903     2     9     6     3
 -0.0000000010     2     9     6     4
 -0.0007432789     2     9     6     5
 -0.0000000002     2     9     6    10
 0.1298740373     2     9     7     1
 0.0000000005     2     9     7     2
 -0.0114539797     2     9     7     3
 0.0000000005     2     9     7     4
 0.0005378526     2     9     7     5
 0.0000000001     2     9     7    10
 0.0000000001     2     9     8     4
 -0.0000000002     2     9     9     1
 -0.5932309947     2     9     9     2
 0.0000000006     2     9     9     3
 -0.0190060944     2     9     9     4
 -0.0000000003     2     9     9     5
 -0.0082193102     2     9     9    10
 -0.0000000028     2     9    10     6
 0.0000000020     2     9    10     7
 -0.0051990876     2    10     1     1
 -0.0001100702     2    10     1     3
 -0.0002748245     2    10     1     5
 0.1228078072     2    10     3     1
 -0.0000000006     2    10     3     2
 -0.0078830340     2    10     3     3
 -0.0000000006     2    10     3     4
 -0.0013410719     2    10     3     5
 -0.0815865236     2    10     4     2
 0.0000000001     2    10     4     3
 0.0031215028     2    10     4     4
 -0.0000000001     2    10     4     5
 0.1085981925     2    10     5     1
 -0.0000000016     2    10     5     2
 -0.0106878874     2    10     5     3
 -0.0000000014     2    10     5     4
 0.0058360977     2    10     5     5
 0.0055680592     2    10     6     6
 -0.0000000001     2    10     6     7
 -0.0000000001     2    10     6     8
 0.0000000002     2    10     6     9
 -0.0000000001     2    10     7     6
 0.0055680590     2    10     7     7
 0.0000000001     2    10     7     8
 -0.0000000001     2    10     7     9
 0.0000000018     2    10     8     6
 0.0000000027     2    10     8     7
 0.0082193100     2    10     8     8
 -0.0000000023     2    10     9     6
 0.0000000018     2    10     9     7
 0.0082193102     2    10     9     9
 -0.4696755840     2    10    10     2
 0.0000000038     2    10    10     3
 -0.0091295669     2    10    10     4
 0.0000000034     2    10    10     5
 -0.6860771018     3     1     1     3
 0.0000000007     3     1     1     4
 -0.0658133065     3     1     1     5
 0.0000000001     3     1     1    10
 0.0038680126     3     1     2     2
 0.0000000002     3     1     2     3
 0.2177769265     3     1     2     4
 -0.0000000003     3     1     2     5
 0.1228078072     3     1     2    10
 0.0000771107     3     1     4     2
 0.0000000005     3     1     4     3
 -0.0048500026     3     1     4     4
 0.0000000008     3     1     4     5
 0.0057213050     3     1     4    10
 -0.0000000001     3     1     5     2
 -0.0134978642     3     1     5     3
 0.0000000002     3     1     5     4
 -0.0227422779     3     1     5     5
 -0.0000000018     3     1     5    10
 -0.0177987399     3     1     6     6
 0.0000000002     3     1     6     7
 0.0000000002     3     1     6     8
 -0.0000000010     3     1     6     9
 0.0000000002     3     1     7     6
 -0.0177987396     3     1     7     7
 0.0000000005     3     1     7     9
 0.0000000003     3     1     8     6
 0.0000000001     3     1     8     7
 -0.0155769727     3     1     8     8
 0.0000000001     3     1     8     9
 -0.0000000011     3     1     9     6
 0.0000000006     3     1     9     7
 0.0000000001     3     1     9     8
 -0.0155769732     3     1     9     9
 -0.0001100702     3     1    10     2
 -0.0000000005     3     1    10     3
 0.0049839450     3     1    10     4
 -0.0000000011     3     1    10     5
 -0.0037803737     3     1    10    10
 0.0000000002     3     2     1     3
 0.2176945426     3     2     1     4
 -0.0000000004     3     2     1     5
 0.1229230421     3     2     1    10
 -0.0038680126     3     2     2     1
 -0.6861171879     3     2     2     3
 -0.0000000005     3     2     2     4
 -0.0659871639     3     2     2     5
 -0.0000000006     3     2     2    10
 -0.0000771107     3     2     4     1
 -0.0053769495     3     2     4     3
 -0.0000000001     3     2     4     4
 -0.0145527470     3     2     4     5
 -0.0000000010     3     2     4    10
 0.0000000001     3     2     5     1
 0.0000000006     3     2     5     3
 -0.0112712851     3     2     5     4
 0.0000000009     3     2     5     5
 0.0088092043     3     2     5    10
 -0.0000000007     3     2     6     6
 0.0086263140     3     2     6     8
 -0.0119210315     3     2     6     9
 -0.0000000006     3     2     7     7
 0.0119210316     3     2     7     8
 0.0086263140     3     2     7     9
 0.0114539797     3     2     8     6
 0.0158286903     3     2     8     7
 -0.0000000008     3     2     8     8
 -0.0158286903     3     2     9     6
 0.0114539797     3     2     9     7
 -0.0000000006     3     2     9     9
 0.0001100702     3     2    10     1
 0.0078830340     3     2    10     3
 -0.0000000001     3     2    10     4
 0.0106878874     3     2    10     5
 -0.0000000038     3     2    10    10
 0.6860771018     3     3     1     1
 -0.0000000002     3     3     1     2
 -0.0000000005     3     3     1     4
 0.0134978642     3     3     1     5
 0.0000000005     3     3     1    10
 -0.0000000002     3     3     2     1
 0.6861171879     3     3     2     2
 0.0053769495     3     3     2     4
 -0.0000000006     3     3     2     5
 -0.0078830340     3     3     2    10
 -0.0000000005     3     3     4     1
 0.0053769495     3     3     4     2
 0.3870099027     3     3     4     4
 -0.0000000001     3     3     4     5
 0.0297378054     3     3     4    10
 0.0134978642     3     3     5     1
 -0.0000000006     3     3     5     2
 -0.0000000001     3     3     5     4
 0.4508377417     3     3     5     5
 0.0000000017     3     3     5    10
 0.4625425189     3     3     6     6
 0.0000000026     3     3     6     8
 -0.0000000016     3     3     6     9
 0.4625425190     3     3     7     7
 0.0000000047     3     3     7     8
 0.0000000019     3     3     7     9
 0.0000000026     3     3     8     6
 0.0000000047     3     3     8     7
 0.4562958657     3     3     8     8
 0.0000000001     3     3     8     9
 -0.0000000016     3     3     9     6
 0.0000000019     3     3     9     7
 0.0000000001     3     3     9     8
 0.4562958653     3     3     9     9
 0.0000000005     3     3    10     1
 -0.0078830340     3     3    10     2
 0.0297378054     3     3    10     4
 0.0000000017     3     3    10     5
 0.3703110142     3     3    10    10
 -0.0000000007     3     4     1     1
 -0.2176945426     3     4     1     2
 0.0000000005     3     4     1     3
 0.0000000005     3     4     1     5
 0.0011309923     3     4     1    10
 -0.2177769265     3     4     2     1
 0.0000000005     3     4     2     2
 -0.0053769495     3     4     2     3
 -0.0032918717     3     4     2     5
 -0.0000000006     3     4     2    10
 0.0048500026     3     4     4     1
 0.0000000001     3     4     4     2
 -0.3870099027     3     4     4     3
 -0.1079090801     3     4     4     5
 0.0000000005     3     4     4    10
 -0.0000000002     3     4     5     1
 0.0112712851     3     4     5     2
 0.0000000001     3     4     5     3
 0.0752822316     3     4     5    10
 0.0000000059     3     4     6     6
 -0.0000000003     3     4     6     7
 0.0414012022     3     4     6     8
 -0.0572138965     3     4     6     9