&FCI NORB= 10,NELEC= 14,MS2=0,
 ORBSYM=1,1,1,1,1,1,1,1,1,1
 ISYM=1,
&END
 0.2785234717     1     1     2     2
 0.0000000009     1     1     2     3
 -0.0009131314     1     1     2     4
 -0.0000000060     1     1     2     5
 -0.0049560585     1     1     2    10
 0.0000000009     1     1     3     2
 0.5958722225     1     1     3     3
 -0.0000007058     1     1     3     4
 -0.0235091052     1     1     3     5
 0.0000001950     1     1     3    10
 -0.0009131314     1     1     4     2
 -0.0000007058     1     1     4     3
 0.5947021560     1     1     4     4
 -0.0000003025     1     1     4     5
 -0.0490804442     1     1     4    10
 -0.0000000060     1     1     5     2
 -0.0235091052     1     1     5     3
 -0.0000003025     1     1     5     4
 0.5956942011     1     1     5     5
 -0.0000005780     1     1     5    10
 0.5798294432     1     1     6     6
 0.0000000002     1     1     6     7
 -0.0000002146     1     1     6     8
 -0.0000006034     1     1     6     9
 0.0000000002     1     1     7     6
 0.5798294431     1     1     7     7
 -0.0000006033     1     1     7     8
 0.0000002162     1     1     7     9
 -0.0000002146     1     1     8     6
 -0.0000006033     1     1     8     7
 0.5703796692     1     1     8     8
 -0.0000006034     1     1     9     6
 0.0000002162     1     1     9     7
 0.5703796692     1     1     9     9
 -0.0049560585     1     1    10     2
 0.0000001950     1     1    10     3
 -0.0490804442     1     1    10     4
 -0.0000005780     1     1    10     5
 0.6060704792     1     1    10    10
 -0.2785234717     1     2     2     1
 0.0007914407     1     2     2     3
 0.0000000010     1     2     2     4
 -0.0052520552     1     2     2     5
 0.0000000057     1     2     2    10
 -0.0000000009     1     2     3     1
 0.0000000051     1     2     3     3
 -0.3055670434     1     2     3     4
 0.0000000026     1     2     3     5
 0.0855038742     1     2     3    10
 0.0009131314     1     2     4     1
 -0.3055832353     1     2     4     3
 0.0000000058     1     2     4     4
 -0.1312326621     1     2     4     5
 0.0000000011     1     2     4    10
 0.0000000060     1     2     5     1
 0.0000000025     1     2     5     3
 -0.1312723789     1     2     5     4
 0.0000000002     1     2     5     5
 -0.2559377878     1     2     5    10
 0.0000000021     1     2     6     6
 -0.0941017507     1     2     6     8
 -0.2635049261     1     2     6     9
 0.0000000021     1     2     7     7
 -0.2635049262     1     2     7     8
 0.0941017518     1     2     7     9
 -0.0940710372     1     2     8     6
 -0.2634189219     1     2     8     7
 0.0000000002     1     2     8     8
 -0.2634189218     1     2     9     6
 0.0940710383     1     2     9     7
 0.0000000002     1     2     9     9
 0.0049560585     1     2    10     1
 0.0854712273     1     2    10     3
 0.0000000011     1     2    10     4
 -0.2557555161     1     2    10     5
 -0.0000000002     1     2    10    10
 -0.0000000009     1     3     2     1
 -0.0007914407     1     3     2     2
 0.0000143345     1     3     2     4
 0.0000320683     1     3     2    10
 -0.5958722225     1     3     3     1
 -0.0000000051     1     3     3     2
 0.0000000003     1     3     3     4
 -0.0054480902     1     3     3     5
 0.0000000070     1     3     3    10
 0.0000007058     1     3     4     1
 0.3055832353     1     3     4     2
 0.0012977691     1     3     4     4
 -0.0000000065     1     3     4     5
 0.0053240687     1     3     4    10
 0.0235091052     1     3     5     1
 -0.0000000025     1     3     5     2
 -0.0000000058     1     3     5     4
 0.0206113529     1     3     5     5
 -0.0000000221     1     3     5    10
 0.0194510152     1     3     6     6
 -0.0000000070     1     3     6     8
 -0.0000000199     1     3     6     9
 0.0194510153     1     3     7     7
 -0.0000000199     1     3     7     8
 0.0000000071     1     3     7     9
 -0.0000000061     1     3     8     6
 -0.0000000171     1     3     8     7
 0.0175286697     1     3     8     8
 -0.0000000171     1     3     9     6
 0.0000000062     1     3     9     7
 0.0175286697     1     3     9     9
 -0.0000001950     1     3    10     1
 -0.0854712273     1     3    10     2
 0.0043589240     1     3    10     4
 -0.0000000168     1     3    10     5
 0.0172539319     1     3    10    10
 0.0009131314     1     4     2     1
 -0.0000000010     1     4     2     2
 -0.0000143345     1     4     2     3
 0.0000390983     1     4     2     5
 -0.0000000001     1     4     2    10
 0.0000007058     1     4     3     1
 0.3055670434     1     4     3     2
 -0.0000000003     1     4     3     3
 -0.0000000007     1     4     3     5
 0.0006608076     1     4     3    10
 -0.5947021560     1     4     4     1
 -0.0000000058     1     4     4     2
 -0.0012977691     1     4     4     3
 0.0015583631     1     4     4     5
 -0.0000000028     1     4     4    10
 0.0000003025     1     4     5     1
 0.1312723789     1     4     5     2
 0.0000000058     1     4     5     3
 -0.0000000220     1     4     5     5
 0.0195174188     1     4     5    10
 -0.0000000221     1     4     6     6
 0.0000000002     1     4     6     7
 0.0060352746     1     4     6     8
 0.0169000533     1     4     6     9
 0.0000000002     1     4     7     6
 -0.0000000222     1     4     7     7
 0.0169000533     1     4     7     8
 -0.0060352748     1     4     7     9
 0.0057986092     1     4     8     6
 0.0162373396     1     4     8     7
 -0.0000000216     1     4     8     8
 -0.0000000001     1     4     8     9
 0.0162373396     1     4     9     6
 -0.0057986093     1     4     9     7
 -0.0000000001     1     4     9     8
 -0.0000000215     1     4     9     9
 0.0490804442     1     4    10     1
 -0.0000000011     1     4    10     2
 -0.0043589240     1     4    10     3
 0.0164016715     1     4    10     5
 -0.0000000231     1     4    10    10
 0.0000000060     1     5     2     1
 0.0052520552     1     5     2     2
 -0.0000390983     1     5     2     4
 -0.0001855935     1     5     2    10
 0.0235091052     1     5     3     1
 -0.0000000026     1     5     3     2
 0.0054480902     1     5     3     3
 0.0000000007     1     5     3     4
 -0.0000000039     1     5     3    10
 0.0000003025     1     5     4     1
 0.1312326621     1     5     4     2
 0.0000000065     1     5     4     3
 -0.0015583631     1     5     4     4
 0.0018952002     1     5     4    10
 -0.5956942011     1     5     5     1
 -0.0000000002     1     5     5     2
 -0.0206113529     1     5     5     3
 0.0000000220     1     5     5     4
 -0.0000000022     1     5     5    10
 0.0057721184     1     5     6     6
 -0.0000000001     1     5     6     8
 -0.0000000005     1     5     6     9
 0.0057721184     1     5     7     7
 -0.0000000005     1     5     7     8
 0.0000000002     1     5     7     9
 -0.0000000004     1     5     8     6
 -0.0000000012     1     5     8     7
 0.0048534384     1     5     8     8
 -0.0000000012     1     5     9     6
 0.0000000004     1     5     9     7
 0.0048534384     1     5     9     9
 0.0000005780     1     5    10     1
 0.2557555161     1     5    10     2
 0.0000000168     1     5    10     3
 -0.0164016715     1     5    10     4
 0.0117774251     1     5    10    10
 -0.0000300069     1     6     2     8
 -0.0000840257     1     6     2     9
 -0.0000000006     1     6     3     8
 -0.0000000019     1     6     3     9
 -0.0000917899     1     6     4     8
 -0.0002570314     1     6     4     9
 0.0000000003     1     6     5     8
 0.0000000008     1     6     5     9
 -0.5798294432     1     6     6     1
 -0.0000000021     1     6     6     2
 -0.0194510152     1     6     6     3
 0.0000000221     1     6     6     4
 -0.0057721184     1     6     6     5
 -0.0000000029     1     6     6    10
 -0.0000000002     1     6     7     1
 -0.0000000002     1     6     7     4
 0.0000000001     1     6     7    10
 0.0000002146     1     6     8     1
 0.0940710372     1     6     8     2
 0.0000000061     1     6     8     3
 -0.0057986092     1     6     8     4
 0.0000000004     1     6     8     5
 0.0025682866     1     6     8    10
 0.0000006034     1     6     9     1
 0.2634189218     1     6     9     2
 0.0000000171     1     6     9     3
 -0.0162373396     1     6     9     4
 0.0000000012     1     6     9     5
 0.0071917491     1     6     9    10
 0.0000431263     1     6    10     8
 0.0001207629     1     6    10     9
 -0.0000840257     1     7     2     8
 0.0000300069     1     7     2     9
 -0.0000000019     1     7     3     8
 0.0000000006     1     7     3     9
 -0.0002570314     1     7     4     8
 0.0000917899     1     7     4     9
 0.0000000008     1     7     5     8
 -0.0000000003     1     7     5     9
 -0.0000000002     1     7     6     1
 -0.0000000002     1     7     6     4
 0.0000000001     1     7     6    10
 -0.5798294431     1     7     7     1
 -0.0000000021     1     7     7     2
 -0.0194510153     1     7     7     3
 0.0000000222     1     7     7     4
 -0.0057721184     1     7     7     5
 -0.0000000029     1     7     7    10
 0.0000006033     1     7     8     1
 0.2634189219     1     7     8     2
 0.0000000171     1     7     8     3
 -0.0162373396     1     7     8     4
 0.0000000012     1     7     8     5
 0.0071917491     1     7     8    10
 -0.0000002162     1     7     9     1
 -0.0940710383     1     7     9     2
 -0.0000000062     1     7     9     3
 0.0057986093     1     7     9     4
 -0.0000000004     1     7     9     5
 -0.0025682867     1     7     9    10
 0.0001207629     1     7    10     8
 -0.0000431263     1     7    10     9
 0.0000300069     1     8     2     6
 0.0000840257     1     8     2     7
 0.0000000006     1     8     3     6
 0.0000000019     1     8     3     7
 0.0000917899     1     8     4     6
 0.0002570314     1     8     4     7
 -0.0000000003     1     8     5     6
 -0.0000000008     1     8     5     7
 0.0000002146     1     8     6     1
 0.0941017507     1     8     6     2
 0.0000000070     1     8     6     3
 -0.0060352746     1     8     6     4
 0.0000000001     1     8     6     5
 0.0026246058     1     8     6    10
 0.0000006033     1     8     7     1
 0.2635049262     1     8     7     2
 0.0000000199     1     8     7     3
 -0.0169000533     1     8     7     4
 0.0000000005     1     8     7     5
 0.0073494548     1     8     7    10
 -0.5703796692     1     8     8     1
 -0.0000000002     1     8     8     2
 -0.0175286697     1     8     8     3
 0.0000000216     1     8     8     4
 -0.0048534384     1     8     8     5
 -0.0000000048     1     8     8    10
 0.0000000001     1     8     9     4
 -0.0000431263     1     8    10     6
 -0.0001207629     1     8    10     7
 0.0000840257     1     9     2     6
 -0.0000300069     1     9     2     7
 0.0000000019     1     9     3     6
 -0.0000000006     1     9     3     7
 0.0002570314     1     9     4     6
 -0.0000917899     1     9     4     7
 -0.0000000008     1     9     5     6
 0.0000000003     1     9     5     7
 0.0000006034     1     9     6     1
 0.2635049261     1     9     6     2
 0.0000000199     1     9     6     3
 -0.0169000533     1     9     6     4
 0.0000000005     1     9     6     5
 0.0073494548     1     9     6    10
 -0.0000002162     1     9     7     1
 -0.0941017518     1     9     7     2
 -0.0000000071     1     9     7     3
 0.0060352748     1     9     7     4
 -0.0000000002     1     9     7     5
 -0.0026246058     1     9     7    10
 0.0000000001     1     9     8     4
 -0.5703796692     1     9     9     1
 -0.0000000002     1     9     9     2
 -0.0175286697     1     9     9     3
 0.0000000215     1     9     9     4
 -0.0048534384     1     9     9     5
 -0.0000000048     1     9     9    10
 -0.0001207629     1     9    10     6
 0.0000431263     1     9    10     7
 0.0049560585     1    10     2     1
 -0.0000000057     1    10     2     2
 -0.0000320683     1    10     2     3
 0.0000000001     1    10     2     4
 0.0001855935     1    10     2     5
 -0.0000001950     1    10     3     1
 -0.0855038742     1    10     3     2
 -0.0000000070     1    10     3     3
 -0.0006608076     1    10     3     4
 0.0000000039     1    10     3     5
 0.0490804442     1    10     4     1
 -0.0000000011     1    10     4     2
 -0.0053240687     1    10     4     3
 0.0000000028     1    10     4     4
 -0.0018952002     1    10     4     5
 0.0000005780     1    10     5     1
 0.2559377878     1    10     5     2
 0.0000000221     1    10     5     3
 -0.0195174188     1    10     5     4
 0.0000000022     1    10     5     5
 0.0000000029     1    10     6     6
 -0.0000000001     1    10     6     7
 -0.0026246058     1    10     6     8
 -0.0073494548     1    10     6     9
 -0.0000000001     1    10     7     6
 0.0000000029     1    10     7     7
 -0.0073494548     1    10     7     8
 0.0026246058     1    10     7     9
 -0.0025682866     1    10     8     6
 -0.0071917491     1    10     8     7
 0.0000000048     1    10     8     8
 -0.0071917491     1    10     9     6
 0.0025682867     1    10     9     7
 0.0000000048     1    10     9     9
 -0.6060704792     1    10    10     1
 0.0000000002     1    10    10     2
 -0.0172539319     1    10    10     3
 0.0000000231     1    10    10     4
 -0.0117774251     1    10    10     5
 -0.2785234717     2     1     1     2
 -0.0000000009     2     1     1     3
 0.0009131314     2     1     1     4
 0.0000000060     2     1     1     5
 0.0049560585     2     1     1    10
 0.0007914407     2     1     3     2
 0.0000000051     2     1     3     3
 -0.3055832353     2     1     3     4
 0.0000000025     2     1     3     5
 0.0854712273     2     1     3    10
 0.0000000010     2     1     4     2
 -0.3055670434     2     1     4     3
 0.0000000058     2     1     4     4
 -0.1312723789     2     1     4     5
 0.0000000011     2     1     4    10
 -0.0052520552     2     1     5     2
 0.0000000026     2     1     5     3
 -0.1312326621     2     1     5     4
 0.0000000002     2     1     5     5
 -0.2557555161     2     1     5    10
 0.0000000021     2     1     6     6
 -0.0940710372     2     1     6     8
 -0.2634189218     2     1     6     9
 0.0000000021     2     1     7     7
 -0.2634189219     2     1     7     8
 0.0940710383     2     1     7     9
 -0.0941017507     2     1     8     6
 -0.2635049262     2     1     8     7
 0.0000000002     2     1     8     8
 -0.2635049261     2     1     9     6
 0.0941017518     2     1     9     7
 0.0000000002     2     1     9     9
 0.0000000057     2     1    10     2
 0.0855038742     2     1    10     3
 0.0000000011     2     1    10     4
 -0.2559377878     2     1    10     5
 -0.0000000002     2     1    10    10
 0.2785234717     2     2     1     1
 -0.0007914407     2     2     1     3
 -0.0000000010     2     2     1     4
 0.0052520552     2     2     1     5
 -0.0000000057     2     2     1    10
 -0.0007914407     2     2     3     1
 0.5958622608     2     2     3     3
 0.0000006928     2     2     3     4
 -0.0235254796     2     2     3     5
 -0.0000001962     2     2     3    10
 -0.0000000010     2     2     4     1
 0.0000006928     2     2     4     3
 0.5947048240     2     2     4     4
 0.0000002983     2     2     4     5
 -0.0491026914     2     2     4    10
 0.0052520552     2     2     5     1
 -0.0235254796     2     2     5     3
 0.0000002983     2     2     5     4
 0.5958908672     2     2     5     5
 0.0000005930     2     2     5    10
 0.5799298615     2     2     6     6
 0.0000000002     2     2     6     7
 0.0000002160     2     2     6     8
 0.0000006025     2     2     6     9
 0.0000000002     2     2     7     6
 0.5799298614     2     2     7     7
 0.0000006027     2     2     7     8
 -0.0000002144     2     2     7     9
 0.0000002160     2     2     8     6
 0.0000006027     2     2     8     7
 0.5703105422     2     2     8     8
 0.0000006025     2     2     9     6
 -0.0000002144     2     2     9     7
 0.5703105421     2     2     9     9
 -0.0000000057     2     2    10     1
 -0.0000001962     2     2    10     3
 -0.0491026914     2     2    10     4
 0.0000005930     2     2    10     5
 0.6058954893     2     2    10    10
 0.0000000009     2     3     1     1
 0.0007914407     2     3     1     2
 -0.0000143345     2     3     1     4
 -0.0000320683     2     3     1    10
 -0.0000000051     2     3     3     1
 -0.5958622608     2     3     3     2
 0.0008648829     2     3     3     4
 0.0000000071     2     3     3     5
 0.0057072507     2     3     3    10
 0.3055670434     2     3     4     1
 -0.0000006928     2     3     4     2
 -0.0000000016     2     3     4     4
 -0.0057616664     2     3     4     5
 -0.0000000054     2     3     4    10
 -0.0000000026     2     3     5     1
 0.0235254796     2     3     5     2
 -0.0057207720     2     3     5     4
 -0.0000000242     2     3     5     5
 -0.0199659166     2     3     5    10
 -0.0000000230     2     3     6     6
 -0.0000000002     2     3     6     7
 -0.0063918678     2     3     6     8
 -0.0178985902     2     3     6     9
 -0.0000000002     2     3     7     6
 -0.0000000229     2     3     7     7
 -0.0178985902     2     3     7     8
 0.0063918680     2     3     7     9
 -0.0055457323     2     3     8     6
 -0.0155292308     2     3     8     7
 -0.0000000207     2     3     8     8
 -0.0155292308     2     3     9     6
 0.0055457325     2     3     9     7
 -0.0000000208     2     3     9     9
 -0.0855038742     2     3    10     1
 0.0000001962     2     3    10     2
 -0.0000000042     2     3    10     4
 -0.0157576080     2     3    10     5
 -0.0000000212     2     3    10    10
 -0.0009131314     2     4     1     1
 0.0000000010     2     4     1     2
 0.0000143345     2     4     1     3
 -0.0000390983     2     4     1     5
 0.0000000001     2     4     1    10
 0.3055832353     2     4     3     1
 -0.0000006928     2     4     3     2
 -0.0008648829     2     4     3     3
 -0.0000018873     2     4     3     5
 -0.0000000009     2     4     3    10
 -0.0000000058     2     4     4     1
 -0.5947048240     2     4     4     2
 0.0000000016     2     4     4     3
 -0.0000000018     2     4     4     5
 -0.0019055556     2     4     4    10
 0.1312326621     2     4     5     1
 -0.0000002983     2     4     5     2
 0.0057207720     2     4     5     3
 -0.0197204668     2     4     5     5
 -0.0000000234     2     4     5    10
 -0.0199913118     2     4     6     6
 -0.0000000072     2     4     6     8
 -0.0000000200     2     4     6     9
 -0.0199913118     2     4     7     7
 -0.0000000200     2     4     7     8
 0.0000000071     2     4     7     9
 -0.0000000069     2     4     8     6
 -0.0000000194     2     4     8     7
 -0.0195161032     2     4     8     8
 -0.0000000194     2     4     9     6
 0.0000000069     2     4     9     7
 -0.0195161033     2     4     9     9
 -0.0000000011     2     4    10     1
 0.0491026914     2     4    10     2
 0.0000000042     2     4    10     3
 -0.0000000202     2     4    10     5
 -0.0213734006     2     4    10    10
 -0.0000000060     2     5     1     1
 -0.0052520552     2     5     1     2
 0.0000390983     2     5     1     4
 0.0001855935     2     5     1    10
 -0.0000000025     2     5     3     1
 0.0235254796     2     5     3     2
 -0.0000000071     2     5     3     3
 0.0000018873     2     5     3     4
 -0.0032721810     2     5     3    10
 0.1312723789     2     5     4     1
 -0.0000002983     2     5     4     2
 0.0057616664     2     5     4     3
 0.0000000018     2     5     4     4
 -0.0000000022     2     5     4    10
 -0.0000000002     2     5     5     1
 -0.5958908672     2     5     5     2
 0.0000000242     2     5     5     3
 0.0197204668     2     5     5     4
 -0.0023331503     2     5     5    10
 -0.0000000066     2     5     6     6
 -0.0001701181     2     5     6     8
 -0.0004763669     2     5     6     9
 -0.0000000066     2     5     7     7
 -0.0004763669     2     5     7     8
 0.0001701181     2     5     7     9
 -0.0003671800     2     5     8     6
 -0.0010281821     2     5     8     7
 -0.0000000055     2     5     8     8
 -0.0010281821     2     5     9     6
 0.0003671800     2     5     9     7
 -0.0000000055     2     5     9     9
 0.2559377878     2     5    10     1
 -0.0000005930     2     5    10     2
 0.0157576080     2     5    10     3
 0.0000000202     2     5    10     4
 -0.0000000143     2     5    10    10
 0.0000300069     2     6     1     8
 0.0000840257     2     6     1     9
 -0.0005790670     2     6     3     8
 -0.0016215110     2     6     3     9
 0.0000000003     2     6     4     9
 0.0002598350     2     6     5     8
 0.0007275933     2     6     5     9
 -0.0000000021     2     6     6     1
 -0.5799298615     2     6     6     2
 0.0000000230     2     6     6     3
 0.0199913118     2     6     6     4
 0.0000000066     2     6     6     5
 -0.0027100763     2     6     6    10
 -0.0000000002     2     6     7     2
 0.0000000002     2     6     7     3
 0.0941017507     2     6     8     1
 -0.0000002160     2     6     8     2
 0.0055457323     2     6     8     3
 0.0000000069     2     6     8     4
 0.0003671800     2     6     8     5
 -0.0000000029     2     6     8    10
 0.2635049261     2     6     9     1
 -0.0000006025     2     6     9     2
 0.0155292308     2     6     9     3
 0.0000000194     2     6     9     4
 0.0010281821     2     6     9     5
 -0.0000000083     2     6     9    10
 -0.0000000001     2     6    10     9
 0.0000840257     2     7     1     8
 -0.0000300069     2     7     1     9
 -0.0016215110     2     7     3     8
 0.0005790671     2     7     3     9
 0.0000000003     2     7     4     8
 -0.0000000001     2     7     4     9
 0.0007275933     2     7     5     8
 -0.0002598350     2     7     5     9
 -0.0000000002     2     7     6     2
 0.0000000002     2     7     6     3
 -0.0000000021     2     7     7     1
 -0.5799298614     2     7     7     2
 0.0000000229     2     7     7     3
 0.0199913118     2     7     7     4
 0.0000000066     2     7     7     5
 -0.0027100763     2     7     7    10
 0.2635049262     2     7     8     1
 -0.0000006027     2     7     8     2
 0.0155292308     2     7     8     3
 0.0000000194     2     7     8     4
 0.0010281821     2     7     8     5
 -0.0000000083     2     7     8    10
 -0.0941017518     2     7     9     1
 0.0000002144     2     7     9     2
 -0.0055457325     2     7     9     3
 -0.0000000069     2     7     9     4
 -0.0003671800     2     7     9     5
 0.0000000029     2     7     9    10
 -0.0000000001     2     7    10     8
 -0.0000300069     2     8     1     6
 -0.0000840257     2     8     1     7
 0.0005790670     2     8     3     6
 0.0016215110     2     8     3     7
 -0.0000000003     2     8     4     7
 -0.0002598350     2     8     5     6
 -0.0007275933     2     8     5     7
 0.0940710372     2     8     6     1
 -0.0000002160     2     8     6     2
 0.0063918678     2     8     6     3
 0.0000000072     2     8     6     4
 0.0001701181     2     8     6     5
 -0.0000000030     2     8     6    10
 0.2634189219     2     8     7     1
 -0.0000006027     2     8     7     2
 0.0178985902     2     8     7     3
 0.0000000200     2     8     7     4
 0.0004763669     2     8     7     5
 -0.0000000085     2     8     7    10
 -0.0000000002     2     8     8     1
 -0.5703105422     2     8     8     2
 0.0000000207     2     8     8     3
 0.0195161032     2     8     8     4
 0.0000000055     2     8     8     5
 -0.0044318295     2     8     8    10
 0.0000000001     2     8    10     7
 -0.0000840257     2     9     1     6
 0.0000300069     2     9     1     7
 0.0016215110     2     9     3     6
 -0.0005790671     2     9     3     7
 -0.0000000003     2     9     4     6
 0.0000000001     2     9     4     7
 -0.0007275933     2     9     5     6
 0.0002598350     2     9     5     7
 0.2634189218     2     9     6     1
 -0.0000006025     2     9     6     2
 0.0178985902     2     9     6     3
 0.0000000200     2     9     6     4
 0.0004763669     2     9     6     5
 -0.0000000085     2     9     6    10
 -0.0940710383     2     9     7     1
 0.0000002144     2     9     7     2
 -0.0063918680     2     9     7     3
 -0.0000000071     2     9     7     4
 -0.0001701181     2     9     7     5
 0.0000000030     2     9     7    10
 -0.0000000002     2     9     9     1
 -0.5703105421     2     9     9     2
 0.0000000208     2     9     9     3
 0.0195161033     2     9     9     4
 0.0000000055     2     9     9     5
 -0.0044318295     2     9     9    10
 0.0000000001     2     9    10     6
 -0.0049560585     2    10     1     1
 0.0000000057     2    10     1     2
 0.0000320683     2    10     1     3
 -0.0000000001     2    10     1     4
 -0.0001855935     2    10     1     5
 -0.0854712273     2    10     3     1
 0.0000001962     2    10     3     2
 -0.0057072507     2    10     3     3
 0.0000000009     2    10     3     4
 0.0032721810     2    10     3     5
 -0.0000000011     2    10     4     1
 0.0491026914     2    10     4     2
 0.0000000054     2    10     4     3
 0.0019055556     2    10     4     4
 0.0000000022     2    10     4     5
 0.2557555161     2    10     5     1
 -0.0000005930     2    10     5     2
 0.0199659166     2    10     5     3
 0.0000000234     2    10     5     4
 0.0023331503     2    10     5     5
 0.0027100763     2    10     6     6
 0.0000000030     2    10     6     8
 0.0000000085     2    10     6     9
 0.0027100763     2    10     7     7
 0.0000000085     2    10     7     8
 -0.0000000030     2    10     7     9
 0.0000000029     2    10     8     6
 0.0000000083     2    10     8     7
 0.0044318295     2    10     8     8
 0.0000000083     2    10     9     6
 -0.0000000029     2    10     9     7
 0.0044318295     2    10     9     9
 0.0000000002     2    10    10     1
 -0.6058954893     2    10    10     2
 0.0000000212     2    10    10     3
 0.0213734006     2    10    10     4
 0.0000000143     2    10    10     5
 -0.0000000009     3     1     1     2
 -0.5958722225     3     1     1     3
 0.0000007058     3     1     1     4
 0.0235091052     3     1     1     5
 -0.0000001950     3     1     1    10
 -0.0007914407     3     1     2     2
 -0.0000000051     3     1     2     3
 0.3055832353     3     1     2     4
 -0.0000000025     3     1     2     5
 -0.0854712273     3     1     2    10
 0.0000143345     3     1     4     2
 0.0000000003     3     1     4     3
 0.0012977691     3     1     4     4
 -0.0000000058     3     1     4     5
 0.0043589240     3     1     4    10
 -0.0054480902     3     1     5     3
 -0.0000000065     3     1     5     4
 0.0206113529     3     1     5     5
 -0.0000000168     3     1     5    10
 0.0194510152     3     1     6     6
 -0.0000000061     3     1     6     8
 -0.0000000171     3     1     6     9
 0.0194510153     3     1     7     7
 -0.0000000171     3     1     7     8
 0.0000000062     3     1     7     9
 -0.0000000070     3     1     8     6
 -0.0000000199     3     1     8     7
 0.0175286697     3     1     8     8
 -0.0000000199     3     1     9     6
 0.0000000071     3     1     9     7
 0.0175286697     3     1     9     9
 0.0000320683     3     1    10     2
 0.0000000070     3     1    10     3
 0.0053240687     3     1    10     4
 -0.0000000221     3     1    10     5
 0.0172539319     3     1    10    10
 0.0000000009     3     2     1     1
 -0.0000000051     3     2     1     3
 0.3055670434     3     2     1     4
 -0.0000000026     3     2     1     5
 -0.0855038742     3     2     1    10
 0.0007914407     3     2     2     1
 -0.5958622608     3     2     2     3
 -0.0000006928     3     2     2     4
 0.0235254796     3     2     2     5
 0.0000001962     3     2     2    10
 -0.0000143345     3     2     4     1
 0.0008648829     3     2     4     3
 -0.0000000016     3     2     4     4
 -0.0057207720     3     2     4     5
 -0.0000000042     3     2     4    10
 0.0000000071     3     2     5     3
 -0.0057616664     3     2     5     4
 -0.0000000242     3     2     5     5
 -0.0157576080     3     2     5    10
 -0.0000000230     3     2     6     6
 -0.0000000002     3     2     6     7
 -0.0055457323     3     2     6     8
 -0.0155292308     3     2     6     9
 -0.0000000002     3     2     7     6
 -0.0000000229     3     2     7     7
 -0.0155292308     3     2     7     8
 0.0055457325     3     2     7     9
 -0.0063918678     3     2     8     6
 -0.0178985902     3     2     8     7
 -0.0000000207     3     2     8     8
 -0.0178985902     3     2     9     6
 0.0063918680     3     2     9     7
 -0.0000000208     3     2     9     9
 -0.0000320683     3     2    10     1
 0.0057072507     3     2    10     3
 -0.0000000054     3     2    10     4
 -0.0199659166     3     2    10     5
 -0.0000000212     3     2    10    10
 0.5958722225     3     3     1     1
 0.0000000051     3     3     1     2
 -0.0000000003     3     3     1     4
 0.0054480902     3     3     1     5
 -0.0000000070     3     3     1    10
 0.0000000051     3     3     2     1
 0.5958622608     3     3     2     2
 -0.0008648829     3     3     2     4
 -0.0000000071     3     3     2     5
 -0.0057072507     3     3     2    10
 -0.0000000003     3     3     4     1
 -0.0008648829     3     3     4     2
 0.2800018226     3     3     4     4
 -0.0104264177     3     3     4    10
 0.0054480902     3     3     5     1
 -0.0000000071     3     3     5     2
 0.3974490030     3     3     5     5
 0.0000000036     3     3     5    10
 0.3963615357     3     3     6     6
 -0.0000000002     3     3     6     7
 0.0000000016     3     3     6     8