&FCI NORB= 10,NELEC= 14,MS2=0,
 ORBSYM=1,1,1,1,1,1,1,1,1,1
 ISYM=1,
&END
 0.3113106058     1     1     2     2
 -0.0000000001     1     1     2     3
 -0.0015260121     1     1     2     4
 -0.0000000001     1     1     2     5
 0.0059274209     1     1     2    10
 -0.0000000001     1     1     3     2
 0.6208071306     1     1     3     3
 0.0000000073     1     1     3     4
 0.0363731553     1     1     3     5
 0.0000000033     1     1     3    10
 -0.0015260121     1     1     4     2
 0.0000000073     1     1     4     3
 0.6043321795     1     1     4     4
 -0.0000000089     1     1     4     5
 0.0578827205     1     1     4    10
 -0.0000000001     1     1     5     2
 0.0363731553     1     1     5     3
 -0.0000000089     1     1     5     4
 0.6156587256     1     1     5     5
 0.0000000102     1     1     5    10
 0.5918105324     1     1     6     6
 0.0000000073     1     1     6     8
 -0.0000000117     1     1     6     9
 0.5918105332     1     1     7     7
 -0.0000000123     1     1     7     8
 -0.0000000077     1     1     7     9
 0.0000000073     1     1     8     6
 -0.0000000123     1     1     8     7
 0.5815198377     1     1     8     8
 -0.0000000001     1     1     8     9
 -0.0000000117     1     1     9     6
 -0.0000000077     1     1     9     7
 -0.0000000001     1     1     9     8
 0.5815198378     1     1     9     9
 0.0059274209     1     1    10     2
 0.0000000033     1     1    10     3
 0.0578827205     1     1    10     4
 0.0000000102     1     1    10     5
 0.6055846163     1     1    10    10
 -0.3113106058     1     2     2     1
 0.0014746724     1     2     2     3
 0.0066224986     1     2     2     5
 0.0000000001     1     2     2    10
 0.0000000001     1     2     3     1
 0.0000000024     1     2     3     3
 -0.2777928120     1     2     3     4
 0.0000000006     1     2     3     5
 -0.1115560347     1     2     3    10
 0.0015260121     1     2     4     1
 -0.2778200280     1     2     4     3
 0.0000000022     1     2     4     4
 0.1630670081     1     2     4     5
 -0.0000000021     1     2     4    10
 0.0000000001     1     2     5     1
 0.0000000006     1     2     5     3
 0.1631368864     1     2     5     4
 -0.0000000012     1     2     5     5
 -0.2239406472     1     2     5    10
 -0.0000000004     1     2     6     6
 -0.1383165694     1     2     6     8
 0.2222045963     1     2     6     9
 -0.0000000010     1     2     7     7
 0.2222045975     1     2     7     8
 0.1383165703     1     2     7     9
 -0.1382481169     1     2     8     6
 0.2220946291     1     2     8     7
 0.0000000002     1     2     8     8
 0.2220946279     1     2     9     6
 0.1382481179     1     2     9     7
 0.0000000001     1     2     9     9
 -0.0059274209     1     2    10     1
 -0.1114954469     1     2    10     3
 -0.0000000021     1     2    10     4
 -0.2236957234     1     2    10     5
 -0.0000000001     1     2    10    10
 0.0000000001     1     3     2     1
 -0.0014746724     1     3     2     2
 0.0000234050     1     3     2     4
 -0.0000589793     1     3     2    10
 -0.6208071306     1     3     3     1
 -0.0000000024     1     3     3     2
 -0.0000000006     1     3     3     4
 0.0078338496     1     3     3     5
 0.0000000002     1     3     3    10
 -0.0000000073     1     3     4     1
 0.2778200280     1     3     4     2
 0.0022311993     1     3     4     4
 -0.0062980128     1     3     4    10
 -0.0363731553     1     3     5     1
 -0.0000000006     1     3     5     2
 0.0000000001     1     3     5     4
 0.0212824884     1     3     5     5
 0.0000000012     1     3     5    10
 0.0187511856     1     3     6     6
 0.0000000007     1     3     6     8
 -0.0000000012     1     3     6     9
 0.0187511857     1     3     7     7
 -0.0000000011     1     3     7     8
 -0.0000000007     1     3     7     9
 0.0000000006     1     3     8     6
 -0.0000000010     1     3     8     7
 0.0170611641     1     3     8     8
 -0.0000000009     1     3     9     6
 -0.0000000006     1     3     9     7
 0.0170611641     1     3     9     9
 -0.0000000033     1     3    10     1
 0.1114954469     1     3    10     2
 -0.0059166982     1     3    10     4
 0.0000000011     1     3    10     5
 0.0143906705     1     3    10    10
 0.0015260121     1     4     2     1
 -0.0000234050     1     4     2     3
 -0.0000693673     1     4     2     5
 -0.0000000073     1     4     3     1
 0.2777928120     1     4     3     2
 0.0000000006     1     4     3     3
 0.0000315952     1     4     3    10
 -0.6043321795     1     4     4     1
 -0.0000000022     1     4     4     2
 -0.0022311993     1     4     4     3
 -0.0022124975     1     4     4     5
 0.0000000007     1     4     4    10
 0.0000000089     1     4     5     1
 -0.1631368864     1     4     5     2
 -0.0000000001     1     4     5     3
 0.0192318246     1     4     5    10
 0.0000000016     1     4     6     6
 0.0090092305     1     4     6     8
 -0.0144732654     1     4     6     9
 0.0000000015     1     4     7     7
 -0.0144732655     1     4     7     8
 -0.0090092305     1     4     7     9
 0.0087430685     1     4     8     6
 -0.0140456782     1     4     8     7
 0.0000000019     1     4     8     8
 -0.0140456781     1     4     9     6
 -0.0087430686     1     4     9     7
 0.0000000019     1     4     9     9
 -0.0578827205     1     4    10     1
 0.0000000021     1     4    10     2
 0.0059166982     1     4    10     3
 0.0150547372     1     4    10     5
 0.0000000048     1     4    10    10
 0.0000000001     1     5     2     1
 -0.0066224986     1     5     2     2
 0.0000693673     1     5     2     4
 -0.0002512159     1     5     2    10
 -0.0363731553     1     5     3     1
 -0.0000000006     1     5     3     2
 -0.0078338496     1     5     3     3
 0.0000000089     1     5     4     1
 -0.1630670081     1     5     4     2
 0.0022124975     1     5     4     4
 0.0029809858     1     5     4    10
 -0.6156587256     1     5     5     1
 0.0000000012     1     5     5     2
 -0.0212824884     1     5     5     3
 -0.0000000002     1     5     5    10
 -0.0073777255     1     5     6     6
 -0.0000000002     1     5     6     8
 0.0000000003     1     5     6     9
 -0.0073777255     1     5     7     7
 0.0000000003     1     5     7     8
 0.0000000002     1     5     7     9
 -0.0000000002     1     5     8     6
 0.0000000004     1     5     8     7
 -0.0060852919     1     5     8     8
 0.0000000004     1     5     9     6
 0.0000000002     1     5     9     7
 -0.0060852919     1     5     9     9
 -0.0000000102     1     5    10     1
 0.2236957234     1     5    10     2
 -0.0000000011     1     5    10     3
 -0.0150547372     1     5    10     4
 -0.0137513158     1     5    10    10
 -0.0000659745     1     6     2     8
 0.0001059877     1     6     2     9
 0.0000000001     1     6     3     8
 -0.0002679174     1     6     4     8
 0.0004304075     1     6     4     9
 0.0000000001     1     6     5     8
 -0.0000000002     1     6     5     9
 -0.5918105324     1     6     6     1
 0.0000000004     1     6     6     2
 -0.0187511856     1     6     6     3
 -0.0000000016     1     6     6     4
 0.0073777255     1     6     6     5
 -0.0000000007     1     6     6    10
 -0.0000000073     1     6     8     1
 0.1382481169     1     6     8     2
 -0.0000000006     1     6     8     3
 -0.0087430685     1     6     8     4
 0.0000000002     1     6     8     5
 -0.0049404000     1     6     8    10
 0.0000000117     1     6     9     1
 -0.2220946279     1     6     9     2
 0.0000000009     1     6     9     3
 0.0140456781     1     6     9     4
 -0.0000000004     1     6     9     5
 0.0079367178     1     6     9    10
 -0.0000874160     1     6    10     8
 0.0001404332     1     6    10     9
 0.0001059877     1     7     2     8
 0.0000659745     1     7     2     9
 -0.0000000001     1     7     3     8
 0.0004304074     1     7     4     8
 0.0002679174     1     7     4     9
 -0.0000000002     1     7     5     8
 -0.0000000001     1     7     5     9
 -0.5918105332     1     7     7     1
 0.0000000010     1     7     7     2
 -0.0187511857     1     7     7     3
 -0.0000000015     1     7     7     4
 0.0073777255     1     7     7     5
 -0.0000000008     1     7     7    10
 0.0000000123     1     7     8     1
 -0.2220946291     1     7     8     2
 0.0000000010     1     7     8     3
 0.0140456782     1     7     8     4
 -0.0000000004     1     7     8     5
 0.0079367179     1     7     8    10
 0.0000000077     1     7     9     1
 -0.1382481179     1     7     9     2
 0.0000000006     1     7     9     3
 0.0087430686     1     7     9     4
 -0.0000000002     1     7     9     5
 0.0049404000     1     7     9    10
 0.0001404332     1     7    10     8
 0.0000874160     1     7    10     9
 0.0000659745     1     8     2     6
 -0.0001059877     1     8     2     7
 -0.0000000001     1     8     3     6
 0.0000000001     1     8     3     7
 0.0002679174     1     8     4     6
 -0.0004304074     1     8     4     7
 -0.0000000001     1     8     5     6
 0.0000000002     1     8     5     7
 -0.0000000073     1     8     6     1
 0.1383165694     1     8     6     2
 -0.0000000007     1     8     6     3
 -0.0090092305     1     8     6     4
 0.0000000002     1     8     6     5
 -0.0049924097     1     8     6    10
 0.0000000123     1     8     7     1
 -0.2222045975     1     8     7     2
 0.0000000011     1     8     7     3
 0.0144732655     1     8     7     4
 -0.0000000003     1     8     7     5
 0.0080202711     1     8     7    10
 -0.5815198377     1     8     8     1
 -0.0000000002     1     8     8     2
 -0.0170611641     1     8     8     3
 -0.0000000019     1     8     8     4
 0.0060852919     1     8     8     5
 -0.0000000010     1     8     8    10
 0.0000000001     1     8     9     1
 0.0000874160     1     8    10     6
 -0.0001404332     1     8    10     7
 -0.0001059877     1     9     2     6
 -0.0000659745     1     9     2     7
 -0.0004304075     1     9     4     6
 -0.0002679174     1     9     4     7
 0.0000000002     1     9     5     6
 0.0000000001     1     9     5     7
 0.0000000117     1     9     6     1
 -0.2222045963     1     9     6     2
 0.0000000012     1     9     6     3
 0.0144732654     1     9     6     4
 -0.0000000003     1     9     6     5
 0.0080202710     1     9     6    10
 0.0000000077     1     9     7     1
 -0.1383165703     1     9     7     2
 0.0000000007     1     9     7     3
 0.0090092305     1     9     7     4
 -0.0000000002     1     9     7     5
 0.0049924098     1     9     7    10
 0.0000000001     1     9     8     1
 -0.5815198378     1     9     9     1
 -0.0000000001     1     9     9     2
 -0.0170611641     1     9     9     3
 -0.0000000019     1     9     9     4
 0.0060852919     1     9     9     5
 -0.0000000010     1     9     9    10
 -0.0001404332     1     9    10     6
 -0.0000874160     1     9    10     7
 -0.0059274209     1    10     2     1
 -0.0000000001     1    10     2     2
 0.0000589793     1    10     2     3
 0.0002512159     1    10     2     5
 -0.0000000033     1    10     3     1
 0.1115560347     1    10     3     2
 -0.0000000002     1    10     3     3
 -0.0000315952     1    10     3     4
 -0.0578827205     1    10     4     1
 0.0000000021     1    10     4     2
 0.0062980128     1    10     4     3
 -0.0000000007     1    10     4     4
 -0.0029809858     1    10     4     5
 -0.0000000102     1    10     5     1
 0.2239406472     1    10     5     2
 -0.0000000012     1    10     5     3
 -0.0192318246     1    10     5     4
 0.0000000002     1    10     5     5
 0.0000000007     1    10     6     6
 0.0049924097     1    10     6     8
 -0.0080202710     1    10     6     9
 0.0000000008     1    10     7     7
 -0.0080202711     1    10     7     8
 -0.0049924098     1    10     7     9
 0.0049404000     1    10     8     6
 -0.0079367179     1    10     8     7
 0.0000000010     1    10     8     8
 -0.0079367178     1    10     9     6
 -0.0049404000     1    10     9     7
 0.0000000010     1    10     9     9
 -0.6055846163     1    10    10     1
 0.0000000001     1    10    10     2
 -0.0143906705     1    10    10     3
 -0.0000000048     1    10    10     4
 0.0137513158     1    10    10     5
 -0.3113106058     2     1     1     2
 0.0000000001     2     1     1     3
 0.0015260121     2     1     1     4
 0.0000000001     2     1     1     5
 -0.0059274209     2     1     1    10
 0.0014746724     2     1     3     2
 0.0000000024     2     1     3     3
 -0.2778200280     2     1     3     4
 0.0000000006     2     1     3     5
 -0.1114954469     2     1     3    10
 -0.2777928120     2     1     4     3
 0.0000000022     2     1     4     4
 0.1631368864     2     1     4     5
 -0.0000000021     2     1     4    10
 0.0066224986     2     1     5     2
 0.0000000006     2     1     5     3
 0.1630670081     2     1     5     4
 -0.0000000012     2     1     5     5
 -0.2236957234     2     1     5    10
 -0.0000000004     2     1     6     6
 -0.1382481169     2     1     6     8
 0.2220946279     2     1     6     9
 -0.0000000010     2     1     7     7
 0.2220946291     2     1     7     8
 0.1382481179     2     1     7     9
 -0.1383165694     2     1     8     6
 0.2222045975     2     1     8     7
 0.0000000002     2     1     8     8
 0.2222045963     2     1     9     6
 0.1383165703     2     1     9     7
 0.0000000001     2     1     9     9
 0.0000000001     2     1    10     2
 -0.1115560347     2     1    10     3
 -0.0000000021     2     1    10     4
 -0.2239406472     2     1    10     5
 -0.0000000001     2     1    10    10
 0.3113106058     2     2     1     1
 -0.0014746724     2     2     1     3
 -0.0066224986     2     2     1     5
 -0.0000000001     2     2     1    10
 -0.0014746724     2     2     3     1
 0.6208039338     2     2     3     3
 -0.0000000137     2     2     3     4
 0.0364201164     2     2     3     5
 -0.0000000051     2     2     3    10
 -0.0000000137     2     2     4     3
 0.6043254970     2     2     4     4
 0.0000000035     2     2     4     5
 0.0579282409     2     2     4    10
 -0.0066224986     2     2     5     1
 0.0364201164     2     2     5     3
 0.0000000035     2     2     5     4
 0.6159413194     2     2     5     5
 -0.0000000067     2     2     5    10
 0.5919486620     2     2     6     6
 -0.0000000032     2     2     6     8
 0.0000000050     2     2     6     9
 0.5919486628     2     2     7     7
 0.0000000044     2     2     7     8
 0.0000000027     2     2     7     9
 -0.0000000032     2     2     8     6
 0.0000000044     2     2     8     7
 0.5814228341     2     2     8     8
 -0.0000000001     2     2     8     9
 0.0000000050     2     2     9     6
 0.0000000027     2     2     9     7
 -0.0000000001     2     2     9     8
 0.5814228341     2     2     9     9
 -0.0000000001     2     2    10     1
 -0.0000000051     2     2    10     3
 0.0579282409     2     2    10     4
 -0.0000000067     2     2    10     5
 0.6053654774     2     2    10    10
 -0.0000000001     2     3     1     1
 0.0014746724     2     3     1     2
 -0.0000234050     2     3     1     4
 0.0000589793     2     3     1    10
 -0.0000000024     2     3     3     1
 -0.6208039338     2     3     3     2
 0.0018398668     2     3     3     4
 0.0000000001     2     3     3     5
 -0.0079110779     2     3     3    10
 0.2777928120     2     3     4     1
 0.0000000137     2     3     4     2
 -0.0000000003     2     3     4     4
 0.0074832933     2     3     4     5
 -0.0000000010     2     3     4    10
 -0.0000000006     2     3     5     1
 -0.0364201164     2     3     5     2
 0.0084595757     2     3     5     4
 0.0000000008     2     3     5     5
 -0.0191501499     2     3     5    10
 -0.0000000007     2     3     6     6
 -0.0100697596     2     3     6     8
 0.0161769980     2     3     6     9
 -0.0000000007     2     3     7     7
 0.0161769980     2     3     7     8
 0.0100697596     2     3     7     9
 -0.0084150872     2     3     8     6
 0.0135187785     2     3     8     7
 -0.0000000011     2     3     8     8
 0.0135187785     2     3     9     6
 0.0084150873     2     3     9     7
 -0.0000000011     2     3     9     9
 0.1115560347     2     3    10     1
 0.0000000051     2     3    10     2
 -0.0000000006     2     3    10     4
 -0.0148464855     2     3    10     5
 -0.0000000043     2     3    10    10
 -0.0015260121     2     4     1     1
 0.0000234050     2     4     1     3
 0.0000693673     2     4     1     5
 0.2778200280     2     4     3     1
 0.0000000137     2     4     3     2
 -0.0018398668     2     4     3     3
 -0.0010098509     2     4     3     5
 -0.0000000004     2     4     3    10
 -0.0000000022     2     4     4     1
 -0.6043254970     2     4     4     2
 0.0000000003     2     4     4     3
 -0.0000000003     2     4     4     5
 0.0028453273     2     4     4    10
 -0.1630670081     2     4     5     1
 -0.0000000035     2     4     5     2
 -0.0084595757     2     4     5     3
 -0.0199873582     2     4     5     5
 -0.0000000004     2     4     5    10
 -0.0195253186     2     4     6     6
 -0.0000000004     2     4     6     8
 0.0000000006     2     4     6     9
 -0.0195253186     2     4     7     7
 0.0000000006     2     4     7     8
 0.0000000004     2     4     7     9
 -0.0000000004     2     4     8     6
 0.0000000006     2     4     8     7
 -0.0196118265     2     4     8     8
 0.0000000006     2     4     9     6
 0.0000000004     2     4     9     7
 -0.0196118265     2     4     9     9
 0.0000000021     2     4    10     1
 -0.0579282409     2     4    10     2
 0.0000000006     2     4    10     3
 -0.0000000005     2     4    10     5
 -0.0201978631     2     4    10    10
 -0.0000000001     2     5     1     1
 0.0066224986     2     5     1     2
 -0.0000693673     2     5     1     4
 0.0002512159     2     5     1    10
 -0.0000000006     2     5     3     1
 -0.0364201164     2     5     3     2
 -0.0000000001     2     5     3     3
 0.0010098509     2     5     3     4
 -0.0033927252     2     5     3    10
 -0.1631368864     2     5     4     1
 -0.0000000035     2     5     4     2
 -0.0074832933     2     5     4     3
 0.0000000003     2     5     4     4
 0.0000000002     2     5     4    10
 0.0000000012     2     5     5     1
 -0.6159413194     2     5     5     2
 -0.0000000008     2     5     5     3
 0.0199873582     2     5     5     4
 0.0038120569     2     5     5    10
 0.0000000001     2     5     6     6
 0.0004323199     2     5     6     8
 -0.0006945190     2     5     6     9
 0.0000000002     2     5     7     7
 -0.0006945188     2     5     7     8
 -0.0004323199     2     5     7     9
 0.0008903876     2     5     8     6
 -0.0014304014     2     5     8     7
 0.0000000002     2     5     8     8
 -0.0014304013     2     5     9     6
 -0.0008903876     2     5     9     7
 0.0000000002     2     5     9     9
 0.2239406472     2     5    10     1
 0.0000000067     2     5    10     2
 0.0148464855     2     5    10     3
 0.0000000005     2     5    10     4
 0.0000000010     2     5    10    10
 0.0000659745     2     6     1     8
 -0.0001059877     2     6     1     9
 -0.0012162791     2     6     3     8
 0.0019539439     2     6     3     9
 0.0000000001     2     6     4     8
 -0.0000000001     2     6     4     9
 -0.0005277580     2     6     5     8
 0.0008478397     2     6     5     9
 0.0000000004     2     6     6     1
 -0.5919486620     2     6     6     2
 0.0000000007     2     6     6     3
 0.0195253186     2     6     6     4
 -0.0000000001     2     6     6     5
 0.0034886039     2     6     6    10
 0.1383165694     2     6     8     1
 0.0000000032     2     6     8     2
 0.0084150872     2     6     8     3
 0.0000000004     2     6     8     4
 -0.0008903876     2     6     8     5
 0.0000000001     2     6     8    10
 -0.2222045963     2     6     9     1
 -0.0000000050     2     6     9     2
 -0.0135187785     2     6     9     3
 -0.0000000006     2     6     9     4
 0.0014304013     2     6     9     5
 -0.0000000002     2     6     9    10
 0.0000000001     2     6    10     9
 -0.0001059877     2     7     1     8
 -0.0000659745     2     7     1     9
 0.0019539438     2     7     3     8
 0.0012162791     2     7     3     9
 0.0008478397     2     7     5     8
 0.0005277580     2     7     5     9
 0.0000000010     2     7     7     1
 -0.5919486628     2     7     7     2
 0.0000000007     2     7     7     3
 0.0195253186     2     7     7     4
 -0.0000000002     2     7     7     5
 0.0034886040     2     7     7    10
 -0.2222045975     2     7     8     1
 -0.0000000044     2     7     8     2
 -0.0135187785     2     7     8     3
 -0.0000000006     2     7     8     4
 0.0014304014     2     7     8     5
 -0.0000000002     2     7     8    10
 -0.1383165703     2     7     9     1
 -0.0000000027     2     7     9     2
 -0.0084150873     2     7     9     3
 -0.0000000004     2     7     9     4
 0.0008903876     2     7     9     5
 -0.0000000001     2     7     9    10
 0.0000000001     2     7    10     8
 -0.0000659745     2     8     1     6
 0.0001059877     2     8     1     7
 0.0012162791     2     8     3     6
 -0.0019539438     2     8     3     7
 -0.0000000001     2     8     4     6
 0.0005277580     2     8     5     6
 -0.0008478397     2     8     5     7
 0.1382481169     2     8     6     1
 0.0000000032     2     8     6     2
 0.0100697596     2     8     6     3
 0.0000000004     2     8     6     4
 -0.0004323199     2     8     6     5
 0.0000000001     2     8     6    10
 -0.2220946291     2     8     7     1
 -0.0000000044     2     8     7     2
 -0.0161769980     2     8     7     3
 -0.0000000006     2     8     7     4
 0.0006945188     2     8     7     5
 -0.0000000001     2     8     7    10
 -0.0000000002     2     8     8     1
 -0.5814228341     2     8     8     2
 0.0000000011     2     8     8     3
 0.0196118265     2     8     8     4
 -0.0000000002     2     8     8     5
 0.0060209457     2     8     8    10
 0.0000000001     2     8     9     2
 -0.0000000001     2     8    10     7
 0.0001059877     2     9     1     6
 0.0000659745     2     9     1     7
 -0.0019539439     2     9     3     6
 -0.0012162791     2     9     3     7
 0.0000000001     2     9     4     6
 -0.0008478397     2     9     5     6
 -0.0005277580     2     9     5     7
 -0.2220946279     2     9     6     1
 -0.0000000050     2     9     6     2
 -0.0161769980     2     9     6     3
 -0.0000000006     2     9     6     4
 0.0006945190     2     9     6     5
 -0.0000000002     2     9     6    10
 -0.1382481179     2     9     7     1
 -0.0000000027     2     9     7     2
 -0.0100697596     2     9     7     3
 -0.0000000004     2     9     7     4
 0.0004323199     2     9     7     5
 -0.0000000001     2     9     7    10
 0.0000000001     2     9     8     2
 -0.0000000001     2     9     9     1
 -0.5814228341     2     9     9     2
 0.0000000011     2     9     9     3
 0.0196118265     2     9     9     4
 -0.0000000002     2     9     9     5
 0.0060209457     2     9     9    10
 -0.0000000001     2     9    10     6
 0.0059274209     2    10     1     1
 0.0000000001     2    10     1     2
 -0.0000589793     2    10     1     3
 -0.0002512159     2    10     1     5
 0.1114954469     2    10     3     1
 0.0000000051     2    10     3     2
 0.0079110779     2    10     3     3
 0.0000000004     2    10     3     4
 0.0033927252     2    10     3     5
 0.0000000021     2    10     4     1
 -0.0579282409     2    10     4     2
 0.0000000010     2    10     4     3
 -0.0028453273     2    10     4     4
 -0.0000000002     2    10     4     5
 0.2236957234     2    10     5     1
 0.0000000067     2    10     5     2
 0.0191501499     2    10     5     3
 0.0000000004     2    10     5     4
 -0.0038120569     2    10     5     5
 -0.0034886039     2    10     6     6
 -0.0000000001     2    10     6     8
 0.0000000002     2    10     6     9
 -0.0034886040     2    10     7     7
 0.0000000001     2    10     7     8
 0.0000000001     2    10     7     9
 -0.0000000001     2    10     8     6
 0.0000000002     2    10     8     7
 -0.0060209457     2    10     8     8
 0.0000000002     2    10     9     6
 0.0000000001     2    10     9     7
 -0.0060209457     2    10     9     9
 0.0000000001     2    10    10     1
 -0.6053654774     2    10    10     2
 0.0000000043     2    10    10     3
 0.0201978631     2    10    10     4
 -0.0000000010     2    10    10     5
 0.0000000001     3     1     1     2
 -0.6208071306     3     1     1     3
 -0.0000000073     3     1     1     4
 -0.0363731553     3     1     1     5
 -0.0000000033     3     1     1    10
 -0.0014746724     3     1     2     2
 -0.0000000024     3     1     2     3
 0.2778200280     3     1     2     4
 -0.0000000006     3     1     2     5
 0.1114954469     3     1     2    10
 0.0000234050     3     1     4     2
 -0.0000000006     3     1     4     3
 0.0022311993     3     1     4     4
 0.0000000001     3     1     4     5
 -0.0059166982     3     1     4    10
 0.0078338496     3     1     5     3
 0.0212824884     3     1     5     5
 0.0000000011     3     1     5    10
 0.0187511856     3     1     6     6
 0.0000000006     3     1     6     8
 -0.0000000009     3     1     6     9
 0.0187511857     3     1     7     7
 -0.0000000010     3     1     7     8
 -0.0000000006     3     1     7     9
 0.0000000007     3     1     8     6
 -0.0000000011     3     1     8     7
 0.0170611641     3     1     8     8
 -0.0000000012     3     1     9     6
 -0.0000000007     3     1     9     7
 0.0170611641     3     1     9     9
 -0.0000589793     3     1    10     2
 0.0000000002     3     1    10     3
 -0.0062980128     3     1    10     4
 0.0000000012     3     1    10     5
 0.0143906705     3     1    10    10
 -0.0000000001     3     2     1     1
 -0.0000000024     3     2     1     3
 0.2777928120     3     2     1     4
 -0.0000000006     3     2     1     5
 0.1115560347     3     2     1    10
 0.0014746724     3     2     2     1
 -0.6208039338     3     2     2     3
 0.0000000137     3     2     2     4
 -0.0364201164     3     2     2     5
 0.0000000051     3     2     2    10
 -0.0000234050     3     2     4     1
 0.0018398668     3     2     4     3
 -0.0000000003     3     2     4     4
 0.0084595757     3     2     4     5
 -0.0000000006     3     2     4    10
 0.0000000001     3     2     5     3
 0.0074832933     3     2     5     4
 0.0000000008     3     2     5     5
 -0.0148464855     3     2     5    10
 -0.0000000007     3     2     6     6
 -0.0084150872     3     2     6     8
 0.0135187785     3     2     6     9
 -0.0000000007     3     2     7     7
 0.0135187785     3     2     7     8
 0.0084150873     3     2     7     9
 -0.0100697596     3     2     8     6
 0.0161769980     3     2     8     7
 -0.0000000011     3     2     8     8
 0.0161769980     3     2     9     6
 0.0100697596     3     2     9     7
 -0.0000000011     3     2     9     9
 0.0000589793     3     2    10     1
 -0.0079110779     3     2    10     3
 -0.0000000010     3     2    10     4
 -0.0191501499     3     2    10     5
 -0.0000000043     3     2    10    10
 0.6208071306     3     3     1     1
 0.0000000024     3     3     1     2
 0.0000000006     3     3     1     4
 -0.0078338496     3     3     1     5
 -0.0000000002     3     3     1    10
 0.0000000024     3     3     2     1
 0.6208039338     3     3     2     2
 -0.0018398668     3     3     2     4
 -0.0000000001     3     3     2     5
 0.0079110779     3     3     2    10
 0.0000000006     3     3     4     1
 -0.0018398668     3     3     4     2
 0.3169041564     3     3     4     4
 0.0000000006     3     3     4     5
 0.0115474090     3     3     4    10
 -0.0078338496     3     3     5     1
 -0.0000000001     3     3     5     2
 0.0000000006     3     3     5     4
 0.4152176847     3     3     5     5
 0.0000000017     3     3     5    10
 0.4159407162     3     3     6     6
 0.0000000001     3     3     6     7
 0.0000000013     3     3     6     8
 -0.0000000020     3     3     6     9
 0.0000000001     3     3     7     6
 0.4159407166     3     3     7     7
 -0.0000000025     3     3     7     8
 -0.0000000016     3     3     7     9
 0.0000000013     3     3     8     6
 -0.0000000025     3     3     8     7
 0.4224104479     3     3     8     8
 -0.0000000020     3     3     9     6
 -0.0000000016     3     3     9     7
 0.4224104479     3     3     9     9
 -0.0000000002     3     3    10     1
 0.0079110779     3     3    10     2
 0.0115474090     3     3    10     4
 0.0000000017     3     3    10     5
 0.4307322347     3     3    10    10
 0.0000000073     3     4     1     1
 -0.2777928120     3     4     1     2
 -0.0000000006     3     4     1     3
 -0.0000315952     3     4     1    10
 -0.2778200280     3     4     2     1
 -0.0000000137     3     4     2     2
 0.0018398668     3     4     2     3
 0.0010098509     3     4     2     5
 0.0000000004     3     4     2    10
 -0.0022311993     3     4     4     1
 0.0000000003     3     4     4     2
 -0.3169041564     3     4     4     3
 -0.0993780851     3     4     4     5
 0.0000000040     3     4     4    10
 -0.0074832933     3     4     5     2
 -0.0000000006     3     4     5     3
 -0.0000000031     3     4     5     5
 0.1150054340     3     4     5    10
 0.0000000010     3     4     6     6
 0.0550159654     3     4     6     8
 -0.0883827615     3     4     6     9
 0.0000000015     3     4     7     7
 -0.0883827619     3     4     7     8
 -0.0550159656     3     4     7     9
 0.0488099955     3     4     8     6