&FCI NORB= 10,NELEC= 14,MS2=0,
 ORBSYM=1,1,1,1,1,1,1,1,1,1
 ISYM=1,
&END
 0.3528479551     1     1     2     2
 0.0025834933     1     1     2     4
 -0.0061954406     1     1     2    10
 0.6594522027     1     1     3     3
 0.0000000032     1     1     3     4
 0.0546368490     1     1     3     5
 0.0000000012     1     1     3    10
 0.0025834933     1     1     4     2
 0.0000000032     1     1     4     3
 0.6135548405     1     1     4     4
 -0.0000000038     1     1     4     5
 0.0718517268     1     1     4    10
 0.0546368490     1     1     5     3
 -0.0000000038     1     1     5     4
 0.6365419811     1     1     5     5
 0.0000000013     1     1     5    10
 0.6103160258     1     1     6     6
 -0.0000000002     1     1     6     7
 0.0000000032     1     1     6     8
 0.0000000008     1     1     6     9
 -0.0000000002     1     1     7     6
 0.6103160258     1     1     7     7
 0.0000000011     1     1     7     8
 -0.0000000031     1     1     7     9
 0.0000000032     1     1     8     6
 0.0000000011     1     1     8     7
 0.5908221410     1     1     8     8
 0.0000000008     1     1     9     6
 -0.0000000031     1     1     9     7
 0.5908221410     1     1     9     9
 -0.0061954406     1     1    10     2
 0.0000000012     1     1    10     3
 0.0718517268     1     1    10     4
 0.0000000013     1     1    10     5
 0.5480841070     1     1    10    10
 -0.3528479551     1     2     2     1
 0.0028015382     1     2     2     3
 0.0086082030     1     2     2     5
 -0.0000000003     1     2     3     3
 0.2399719936     1     2     3     4
 -0.0000000009     1     2     3     5
 0.1292161460     1     2     3    10
 -0.0025834933     1     2     4     1
 0.2400272096     1     2     4     3
 0.0000000007     1     2     4     4
 -0.1953561829     1     2     4     5
 0.0000000003     1     2     4    10
 -0.0000000008     1     2     5     3
 -0.1954865896     1     2     5     4
 -0.0000000006     1     2     5     5
 0.1612000797     1     2     5    10
 -0.0000000003     1     2     6     6
 0.0000000003     1     2     6     7
 0.2270120699     1     2     6     8
 0.0692417788     1     2     6     9
 0.0000000003     1     2     7     6
 -0.0000000003     1     2     7     7
 0.0692417789     1     2     7     8
 -0.2270120699     1     2     7     9
 0.2268276179     1     2     8     6
 0.0691855186     1     2     8     7
 -0.0000000001     1     2     8     8
 0.0691855184     1     2     9     6
 -0.2268276178     1     2     9     7
 -0.0000000001     1     2     9     9
 0.0061954406     1     2    10     1
 0.1291113913     1     2    10     3
 0.0000000003     1     2    10     4
 0.1609080561     1     2    10     5
 -0.0028015382     1     3     2     2
 -0.0000497746     1     3     2     4
 0.0001013311     1     3     2    10
 -0.6594522027     1     3     3     1
 0.0000000003     1     3     3     2
 0.0000000001     1     3     3     4
 0.0112862022     1     3     3     5
 0.0000000002     1     3     3    10
 -0.0000000032     1     3     4     1
 -0.2400272096     1     3     4     2
 0.0037960557     1     3     4     4
 0.0000000001     1     3     4     5
 -0.0062260330     1     3     4    10
 -0.0546368490     1     3     5     1
 0.0000000008     1     3     5     2
 0.0000000003     1     3     5     4
 0.0221872450     1     3     5     5
 -0.0000000002     1     3     5    10
 0.0180731029     1     3     6     6
 0.0000000001     1     3     6     8
 0.0180731029     1     3     7     7
 -0.0000000001     1     3     7     9
 0.0000000001     1     3     8     6
 0.0000000001     1     3     8     7
 0.0162035185     1     3     8     8
 -0.0000000001     1     3     9     7
 0.0162035185     1     3     9     9
 -0.0000000012     1     3    10     1
 -0.1291113913     1     3    10     2
 -0.0066602019     1     3    10     4
 0.0081158076     1     3    10    10
 -0.0025834933     1     4     2     1
 0.0000497746     1     4     2     3
 0.0001300349     1     4     2     5
 -0.0000000032     1     4     3     1
 -0.2399719936     1     4     3     2
 -0.0000000001     1     4     3     3
 -0.0000000002     1     4     3     5
 0.0009011872     1     4     3    10
 -0.6135548405     1     4     4     1
 -0.0000000007     1     4     4     2
 -0.0037960557     1     4     4     3
 -0.0027663581     1     4     4     5
 0.0000000038     1     4     5     1
 0.1954865896     1     4     5     2
 -0.0000000003     1     4     5     3
 -0.0000000002     1     4     5     5
 0.0166308005     1     4     5    10
 0.0000000001     1     4     6     6
 0.0149028029     1     4     6     8
 0.0045455582     1     4     6     9
 0.0000000001     1     4     7     7
 0.0045455583     1     4     7     8
 -0.0149028030     1     4     7     9
 0.0147366796     1     4     8     6
 0.0044948883     1     4     8     7
 0.0000000001     1     4     8     8
 0.0044948884     1     4     9     6
 -0.0147366796     1     4     9     7
 0.0000000001     1     4     9     9
 -0.0718517268     1     4    10     1
 -0.0000000003     1     4    10     2
 0.0066602019     1     4    10     3
 0.0116521459     1     4    10     5
 0.0000000027     1     4    10    10
 -0.0086082030     1     5     2     2
 -0.0001300349     1     5     2     4
 0.0003025618     1     5     2    10
 -0.0546368490     1     5     3     1
 0.0000000009     1     5     3     2
 -0.0112862022     1     5     3     3
 0.0000000002     1     5     3     4
 0.0000000038     1     5     4     1
 0.1953561829     1     5     4     2
 -0.0000000001     1     5     4     3
 0.0027663581     1     5     4     4
 0.0039480951     1     5     4    10
 -0.6365419811     1     5     5     1
 0.0000000006     1     5     5     2
 -0.0221872450     1     5     5     3
 0.0000000002     1     5     5     4
 0.0000000001     1     5     5    10
 -0.0094302859     1     5     6     6
 -0.0000000001     1     5     6     8
 -0.0094302859     1     5     7     7
 0.0000000001     1     5     7     9
 -0.0000000002     1     5     8     6
 -0.0000000001     1     5     8     7
 -0.0073267345     1     5     8     8
 -0.0000000001     1     5     9     6
 0.0000000002     1     5     9     7
 -0.0073267345     1     5     9     9
 -0.0000000013     1     5    10     1
 -0.1609080561     1     5    10     2
 -0.0116521459     1     5    10     4
 -0.0125254757     1     5    10    10
 0.0001744665     1     6     2     8
 0.0000532147     1     6     2     9
 -0.0000000001     1     6     3     8
 -0.0008474612     1     6     4     8
 -0.0002584872     1     6     4     9
 -0.6103160258     1     6     6     1
 0.0000000003     1     6     6     2
 -0.0180731029     1     6     6     3
 -0.0000000001     1     6     6     4
 0.0094302859     1     6     6     5
 -0.0000000001     1     6     6    10
 0.0000000002     1     6     7     1
 -0.0000000003     1     6     7     2
 -0.0000000032     1     6     8     1
 -0.2268276179     1     6     8     2
 -0.0000000001     1     6     8     3
 -0.0147366796     1     6     8     4
 0.0000000002     1     6     8     5
 -0.0102311979     1     6     8    10
 -0.0000000008     1     6     9     1
 -0.0691855184     1     6     9     2
 -0.0044948884     1     6     9     4
 0.0000000001     1     6     9     5
 -0.0031206550     1     6     9    10
 -0.0002676021     1     6    10     8
 -0.0000816223     1     6    10     9
 0.0000532147     1     7     2     8
 -0.0001744665     1     7     2     9
 0.0000000001     1     7     3     9
 -0.0002584872     1     7     4     8
 0.0008474611     1     7     4     9
 -0.0000000001     1     7     5     9
 0.0000000002     1     7     6     1
 -0.0000000003     1     7     6     2
 -0.6103160258     1     7     7     1
 0.0000000003     1     7     7     2
 -0.0180731029     1     7     7     3
 -0.0000000001     1     7     7     4
 0.0094302859     1     7     7     5
 -0.0000000001     1     7     7    10
 -0.0000000011     1     7     8     1
 -0.0691855186     1     7     8     2
 -0.0000000001     1     7     8     3
 -0.0044948883     1     7     8     4
 0.0000000001     1     7     8     5
 -0.0031206550     1     7     8    10
 0.0000000031     1     7     9     1
 0.2268276178     1     7     9     2
 0.0000000001     1     7     9     3
 0.0147366796     1     7     9     4
 -0.0000000002     1     7     9     5
 0.0102311979     1     7     9    10
 -0.0000816223     1     7    10     8
 0.0002676021     1     7    10     9
 -0.0001744665     1     8     2     6
 -0.0000532147     1     8     2     7
 0.0000000001     1     8     3     6
 0.0008474612     1     8     4     6
 0.0002584872     1     8     4     7
 -0.0000000032     1     8     6     1
 -0.2270120699     1     8     6     2
 -0.0000000001     1     8     6     3
 -0.0149028029     1     8     6     4
 0.0000000001     1     8     6     5
 -0.0101535731     1     8     6    10
 -0.0000000011     1     8     7     1
 -0.0692417789     1     8     7     2
 -0.0045455583     1     8     7     4
 -0.0030969783     1     8     7    10
 -0.5908221410     1     8     8     1
 0.0000000001     1     8     8     2
 -0.0162035185     1     8     8     3
 -0.0000000001     1     8     8     4
 0.0073267345     1     8     8     5
 -0.0000000008     1     8     8    10
 0.0002676021     1     8    10     6
 0.0000816223     1     8    10     7
 -0.0000532147     1     9     2     6
 0.0001744665     1     9     2     7
 -0.0000000001     1     9     3     7
 0.0002584872     1     9     4     6
 -0.0008474611     1     9     4     7
 0.0000000001     1     9     5     7
 -0.0000000008     1     9     6     1
 -0.0692417788     1     9     6     2
 -0.0045455582     1     9     6     4
 -0.0030969783     1     9     6    10
 0.0000000031     1     9     7     1
 0.2270120699     1     9     7     2
 0.0000000001     1     9     7     3
 0.0149028030     1     9     7     4
 -0.0000000001     1     9     7     5
 0.0101535730     1     9     7    10
 -0.5908221410     1     9     9     1
 0.0000000001     1     9     9     2
 -0.0162035185     1     9     9     3
 -0.0000000001     1     9     9     4
 0.0073267345     1     9     9     5
 -0.0000000008     1     9     9    10
 0.0000816223     1     9    10     6
 -0.0002676021     1     9    10     7
 0.0061954406     1    10     2     1
 -0.0001013311     1    10     2     3
 -0.0003025618     1    10     2     5
 -0.0000000012     1    10     3     1
 -0.1292161460     1    10     3     2
 -0.0000000002     1    10     3     3
 -0.0009011872     1    10     3     4
 -0.0718517268     1    10     4     1
 -0.0000000003     1    10     4     2
 0.0062260330     1    10     4     3
 -0.0039480951     1    10     4     5
 -0.0000000013     1    10     5     1
 -0.1612000797     1    10     5     2
 0.0000000002     1    10     5     3
 -0.0166308005     1    10     5     4
 -0.0000000001     1    10     5     5
 0.0000000001     1    10     6     6
 0.0101535731     1    10     6     8
 0.0030969783     1    10     6     9
 0.0000000001     1    10     7     7
 0.0030969783     1    10     7     8
 -0.0101535730     1    10     7     9
 0.0102311979     1    10     8     6
 0.0031206550     1    10     8     7
 0.0000000008     1    10     8     8
 0.0031206550     1    10     9     6
 -0.0102311979     1    10     9     7
 0.0000000008     1    10     9     9
 -0.5480841070     1    10    10     1
 -0.0081158076     1    10    10     3
 -0.0000000027     1    10    10     4
 0.0125254757     1    10    10     5
 -0.3528479551     2     1     1     2
 -0.0025834933     2     1     1     4
 0.0061954406     2     1     1    10
 0.0028015382     2     1     3     2
 -0.0000000003     2     1     3     3
 0.2400272096     2     1     3     4
 -0.0000000008     2     1     3     5
 0.1291113913     2     1     3    10
 0.2399719936     2     1     4     3
 0.0000000007     2     1     4     4
 -0.1954865896     2     1     4     5
 0.0000000003     2     1     4    10
 0.0086082030     2     1     5     2
 -0.0000000009     2     1     5     3
 -0.1953561829     2     1     5     4
 -0.0000000006     2     1     5     5
 0.1609080561     2     1     5    10
 -0.0000000003     2     1     6     6
 0.0000000003     2     1     6     7
 0.2268276179     2     1     6     8
 0.0691855184     2     1     6     9
 0.0000000003     2     1     7     6
 -0.0000000003     2     1     7     7
 0.0691855186     2     1     7     8
 -0.2268276178     2     1     7     9
 0.2270120699     2     1     8     6
 0.0692417789     2     1     8     7
 -0.0000000001     2     1     8     8
 0.0692417788     2     1     9     6
 -0.2270120699     2     1     9     7
 -0.0000000001     2     1     9     9
 0.1292161460     2     1    10     3
 0.0000000003     2     1    10     4
 0.1612000797     2     1    10     5
 0.3528479551     2     2     1     1
 -0.0028015382     2     2     1     3
 -0.0086082030     2     2     1     5
 -0.0028015382     2     2     3     1
 0.6594694502     2     2     3     3
 -0.0000000031     2     2     3     4
 0.0547503311     2     2     3     5
 -0.0000000022     2     2     3    10
 -0.0000000031     2     2     4     3
 0.6135289342     2     2     4     4
 0.0000000014     2     2     4     5
 0.0719211970     2     2     4    10
 -0.0086082030     2     2     5     1
 0.0547503311     2     2     5     3
 0.0000000014     2     2     5     4
 0.6369683517     2     2     5     5
 -0.0000000029     2     2     5    10
 0.6105176116     2     2     6     6
 -0.0000000002     2     2     6     7
 -0.0000000028     2     2     6     8
 -0.0000000010     2     2     6     9
 -0.0000000002     2     2     7     6
 0.6105176116     2     2     7     7
 -0.0000000007     2     2     7     8
 0.0000000029     2     2     7     9
 -0.0000000028     2     2     8     6
 -0.0000000007     2     2     8     7
 0.5906815667     2     2     8     8
 -0.0000000010     2     2     9     6
 0.0000000029     2     2     9     7
 0.5906815667     2     2     9     9
 -0.0000000022     2     2    10     3
 0.0719211970     2     2    10     4
 -0.0000000029     2     2    10     5
 0.5478738527     2     2    10    10
 0.0028015382     2     3     1     2
 0.0000497746     2     3     1     4
 -0.0001013311     2     3     1    10
 0.0000000003     2     3     3     1
 -0.6594694502     2     3     3     2
 -0.0038294253     2     3     3     4
 -0.0000000004     2     3     3     5
 0.0092143622     2     3     3    10
 -0.2399719936     2     3     4     1
 0.0000000031     2     3     4     2
 0.0000000001     2     3     4     4
 -0.0098215837     2     3     4     5
 0.0000000009     2     3     5     1
 -0.0547503311     2     3     5     2
 -0.0122527272     2     3     5     4
 -0.0000000005     2     3     5     5
 0.0152884713     2     3     5    10
 -0.0000000002     2     3     6     6
 0.0184597474     2     3     6     8
 0.0056304748     2     3     6     9
 -0.0000000002     2     3     7     7
 0.0056304748     2     3     7     8
 -0.0184597474     2     3     7     9
 0.0145282030     2     3     8     6
 0.0044313002     2     3     8     7
 -0.0000000002     2     3     8     8
 0.0044313002     2     3     9     6
 -0.0145282031     2     3     9     7
 -0.0000000002     2     3     9     9
 -0.1292161460     2     3    10     1
 0.0000000022     2     3    10     2
 -0.0000000004     2     3    10     4
 0.0120027947     2     3    10     5
 0.0000000013     2     3    10    10
 0.0025834933     2     4     1     1
 -0.0000497746     2     4     1     3
 -0.0001300349     2     4     1     5
 -0.2400272096     2     4     3     1
 0.0000000031     2     4     3     2
 0.0038294253     2     4     3     3
 0.0024504657     2     4     3     5
 0.0000000001     2     4     3    10
 -0.0000000007     2     4     4     1
 -0.6135289342     2     4     4     2
 -0.0000000001     2     4     4     3
 0.0000000001     2     4     4     5
 -0.0034688879     2     4     4    10
 0.1953561829     2     4     5     1
 -0.0000000014     2     4     5     2
 0.0122527272     2     4     5     3
 0.0202152445     2     4     5     5
 -0.0000000006     2     4     5    10
 0.0192307306     2     4     6     6
 -0.0000000001     2     4     6     7
 -0.0000000001     2     4     7     6
 0.0192307306     2     4     7     7
 0.0000000002     2     4     8     6
 0.0000000001     2     4     8     7
 0.0193581575     2     4     8     8
 0.0000000001     2     4     9     6
 -0.0000000001     2     4     9     7
 0.0193581575     2     4     9     9
 -0.0000000003     2     4    10     1
 -0.0719211970     2     4    10     2
 0.0000000004     2     4    10     3
 -0.0000000001     2     4    10     5
 0.0148195955     2     4    10    10
 0.0086082030     2     5     1     2
 0.0001300349     2     5     1     4
 -0.0003025618     2     5     1    10
 0.0000000008     2     5     3     1
 -0.0547503311     2     5     3     2
 0.0000000004     2     5     3     3
 -0.0024504657     2     5     3     4
 0.0025283004     2     5     3    10
 0.1954865896     2     5     4     1
 -0.0000000014     2     5     4     2
 0.0098215837     2     5     4     3
 -0.0000000001     2     5     4     4
 -0.0000000001     2     5     4    10
 0.0000000006     2     5     5     1
 -0.6369683517     2     5     5     2
 0.0000000005     2     5     5     3
 -0.0202152445     2     5     5     4
 -0.0054201030     2     5     5    10
 -0.0009554569     2     5     6     8
 -0.0002914274     2     5     6     9
 -0.0002914274     2     5     7     8
 0.0009554569     2     5     7     9
 -0.0021145103     2     5     8     6
 -0.0006449545     2     5     8     7
 0.0000000001     2     5     8     8
 -0.0006449545     2     5     9     6
 0.0021145103     2     5     9     7
 0.0000000001     2     5     9     9
 -0.1612000797     2     5    10     1
 0.0000000029     2     5    10     2
 -0.0120027947     2     5    10     3
 0.0000000001     2     5    10     4
 -0.0000000016     2     5    10    10
 -0.0001744665     2     6     1     8
 -0.0000532147     2     6     1     9
 0.0030034575     2     6     3     8
 0.0009160955     2     6     3     9
 -0.0000000001     2     6     4     8
 0.0011542823     2     6     5     8
 0.0003520719     2     6     5     9
 0.0000000003     2     6     6     1
 -0.6105176116     2     6     6     2
 0.0000000002     2     6     6     3
 -0.0192307306     2     6     6     4
 -0.0047322707     2     6     6    10
 -0.0000000003     2     6     7     1
 0.0000000002     2     6     7     2
 0.0000000001     2     6     7     4
 -0.2270120699     2     6     8     1
 0.0000000028     2     6     8     2
 -0.0145282030     2     6     8     3
 -0.0000000002     2     6     8     4
 0.0021145103     2     6     8     5
 -0.0000000024     2     6     8    10
 -0.0692417788     2     6     9     1
 0.0000000010     2     6     9     2
 -0.0044313002     2     6     9     3
 -0.0000000001     2     6     9     4
 0.0006449545     2     6     9     5
 -0.0000000007     2     6     9    10
 -0.0000000025     2     6    10     8
 -0.0000000007     2     6    10     9
 -0.0000532147     2     7     1     8
 0.0001744665     2     7     1     9
 0.0009160955     2     7     3     8
 -0.0030034574     2     7     3     9
 0.0000000001     2     7     4     9
 0.0003520718     2     7     5     8
 -0.0011542823     2     7     5     9
 -0.0000000003     2     7     6     1
 0.0000000002     2     7     6     2
 0.0000000001     2     7     6     4
 0.0000000003     2     7     7     1
 -0.6105176116     2     7     7     2
 0.0000000002     2     7     7     3
 -0.0192307306     2     7     7     4
 -0.0047322707     2     7     7    10
 -0.0692417789     2     7     8     1
 0.0000000007     2     7     8     2
 -0.0044313002     2     7     8     3
 -0.0000000001     2     7     8     4
 0.0006449545     2     7     8     5
 -0.0000000008     2     7     8    10
 0.2270120699     2     7     9     1
 -0.0000000029     2     7     9     2
 0.0145282031     2     7     9     3
 0.0000000001     2     7     9     4
 -0.0021145103     2     7     9     5
 0.0000000025     2     7     9    10
 -0.0000000007     2     7    10     8
 0.0000000025     2     7    10     9
 0.0001744665     2     8     1     6
 0.0000532147     2     8     1     7
 -0.0030034575     2     8     3     6
 -0.0009160955     2     8     3     7
 0.0000000001     2     8     4     6
 -0.0011542823     2     8     5     6
 -0.0003520718     2     8     5     7
 -0.2268276179     2     8     6     1
 0.0000000028     2     8     6     2
 -0.0184597474     2     8     6     3
 0.0009554569     2     8     6     5
 -0.0691855186     2     8     7     1
 0.0000000007     2     8     7     2
 -0.0056304748     2     8     7     3
 0.0002914274     2     8     7     5
 0.0000000001     2     8     8     1
 -0.5906815667     2     8     8     2
 0.0000000002     2     8     8     3
 -0.0193581575     2     8     8     4
 -0.0000000001     2     8     8     5
 -0.0077766811     2     8     8    10
 0.0000000025     2     8    10     6
 0.0000000007     2     8    10     7
 0.0000532147     2     9     1     6
 -0.0001744665     2     9     1     7
 -0.0009160955     2     9     3     6
 0.0030034574     2     9     3     7
 -0.0000000001     2     9     4     7
 -0.0003520719     2     9     5     6
 0.0011542823     2     9     5     7
 -0.0691855184     2     9     6     1
 0.0000000010     2     9     6     2
 -0.0056304748     2     9     6     3
 0.0002914274     2     9     6     5
 0.2268276178     2     9     7     1
 -0.0000000029     2     9     7     2
 0.0184597474     2     9     7     3
 -0.0009554569     2     9     7     5
 0.0000000001     2     9     9     1
 -0.5906815667     2     9     9     2
 0.0000000002     2     9     9     3
 -0.0193581575     2     9     9     4
 -0.0000000001     2     9     9     5
 -0.0077766812     2     9     9    10
 0.0000000007     2     9    10     6
 -0.0000000025     2     9    10     7
 -0.0061954406     2    10     1     1
 0.0001013311     2    10     1     3
 0.0003025618     2    10     1     5
 -0.1291113913     2    10     3     1
 0.0000000022     2    10     3     2
 -0.0092143622     2    10     3     3
 -0.0000000001     2    10     3     4
 -0.0025283004     2    10     3     5
 -0.0000000003     2    10     4     1
 -0.0719211970     2    10     4     2
 0.0034688879     2    10     4     4
 0.0000000001     2    10     4     5
 -0.1609080561     2    10     5     1
 0.0000000029     2    10     5     2
 -0.0152884713     2    10     5     3
 0.0000000006     2    10     5     4
 0.0054201030     2    10     5     5
 0.0047322707     2    10     6     6
 0.0047322707     2    10     7     7
 0.0000000024     2    10     8     6
 0.0000000008     2    10     8     7
 0.0077766811     2    10     8     8
 0.0000000007     2    10     9     6
 -0.0000000025     2    10     9     7
 0.0077766812     2    10     9     9
 -0.5478738527     2    10    10     2
 -0.0000000013     2    10    10     3
 -0.0148195955     2    10    10     4
 0.0000000016     2    10    10     5
 -0.6594522027     3     1     1     3
 -0.0000000032     3     1     1     4
 -0.0546368490     3     1     1     5
 -0.0000000012     3     1     1    10
 -0.0028015382     3     1     2     2
 0.0000000003     3     1     2     3
 -0.2400272096     3     1     2     4
 0.0000000008     3     1     2     5
 -0.1291113913     3     1     2    10
 -0.0000497746     3     1     4     2
 0.0000000001     3     1     4     3
 0.0037960557     3     1     4     4
 0.0000000003     3     1     4     5
 -0.0066602019     3     1     4    10
 0.0112862022     3     1     5     3
 0.0000000001     3     1     5     4
 0.0221872450     3     1     5     5
 0.0180731029     3     1     6     6
 0.0000000001     3     1     6     8
 0.0180731029     3     1     7     7
 0.0000000001     3     1     7     8
 -0.0000000001     3     1     7     9
 0.0000000001     3     1     8     6
 0.0162035185     3     1     8     8
 -0.0000000001     3     1     9     7
 0.0162035185     3     1     9     9
 0.0001013311     3     1    10     2
 0.0000000002     3     1    10     3
 -0.0062260330     3     1    10     4
 -0.0000000002     3     1    10     5
 0.0081158076     3     1    10    10
 0.0000000003     3     2     1     3
 -0.2399719936     3     2     1     4
 0.0000000009     3     2     1     5
 -0.1292161460     3     2     1    10
 0.0028015382     3     2     2     1
 -0.6594694502     3     2     2     3
 0.0000000031     3     2     2     4
 -0.0547503311     3     2     2     5
 0.0000000022     3     2     2    10
 0.0000497746     3     2     4     1
 -0.0038294253     3     2     4     3
 0.0000000001     3     2     4     4
 -0.0122527272     3     2     4     5
 -0.0000000004     3     2     4    10
 -0.0000000004     3     2     5     3
 -0.0098215837     3     2     5     4
 -0.0000000005     3     2     5     5
 0.0120027947     3     2     5    10
 -0.0000000002     3     2     6     6
 0.0145282030     3     2     6     8
 0.0044313002     3     2     6     9
 -0.0000000002     3     2     7     7
 0.0044313002     3     2     7     8
 -0.0145282031     3     2     7     9
 0.0184597474     3     2     8     6
 0.0056304748     3     2     8     7
 -0.0000000002     3     2     8     8
 0.0056304748     3     2     9     6
 -0.0184597474     3     2     9     7
 -0.0000000002     3     2     9     9
 -0.0001013311     3     2    10     1
 0.0092143622     3     2    10     3
 0.0152884713     3     2    10     5
 0.0000000013     3     2    10    10
 0.6594522027     3     3     1     1
 -0.0000000003     3     3     1     2
 -0.0000000001     3     3     1     4
 -0.0112862022     3     3     1     5
 -0.0000000002     3     3     1    10
 -0.0000000003     3     3     2     1
 0.6594694502     3     3     2     2
 0.0038294253     3     3     2     4
 0.0000000004     3     3     2     5
 -0.0092143622     3     3     2    10
 -0.0000000001     3     3     4     1
 0.0038294253     3     3     4     2
 0.3619917658     3     3     4     4
 -0.0000000005     3     3     4     5
 0.0204207652     3     3     4    10
 -0.0112862022     3     3     5     1
 0.0000000004     3     3     5     2
 -0.0000000005     3     3     5     4
 0.4375337377     3     3     5     5
 0.0000000007     3     3     5    10
 0.4442640698     3     3     6     6
 -0.0000000001     3     3     6     7
 0.0000000004     3     3     6     8
 0.0000000001     3     3     6     9
 -0.0000000001     3     3     7     6
 0.4442640698     3     3     7     7
 0.0000000001     3     3     7     8
 -0.0000000003     3     3     7     9
 0.0000000004     3     3     8     6
 0.0000000001     3     3     8     7
 0.4444746411     3     3     8     8
 0.0000000001     3     3     8     9
 0.0000000001     3     3     9     6
 -0.0000000003     3     3     9     7
 0.0000000001     3     3     9     8
 0.4444746411     3     3     9     9
 -0.0000000002     3     3    10     1
 -0.0092143622     3     3    10     2
 0.0204207652     3     3    10     4
 0.0000000007     3     3    10     5
 0.4104568494     3     3    10    10
 0.0000000032     3     4     1     1
 0.2399719936     3     4     1     2
 0.0000000001     3     4     1     3
 0.0000000002     3     4     1     5
 -0.0009011872     3     4     1    10
 0.2400272096     3     4     2     1
 -0.0000000031     3     4     2     2
 -0.0038294253     3     4     2     3
 -0.0024504657     3     4     2     5
 -0.0000000001     3     4     2    10
 -0.0037960557     3     4     4     1
 -0.0000000001     3     4     4     2
 -0.3619917658     3     4     4     3
 -0.1070488493     3     4     4     5
 -0.0000000002     3     4     4    10
 -0.0000000001     3     4     5     1
 0.0098215837     3     4     5     2
 0.0000000005     3     4     5     3
 -0.0000000005     3     4     5     5
 0.0941510396     3     4     5    10
 0.0000000005     3     4     6     6
 0.0789676063     3     4     6     8
 0.0240861974     3     4     6     9
 0.0000000006     3     4     7     7
 0.0240861974     3     4     7     8
 -0.0789676063     3     4     7     9
 0.0642140826     3     4     8     6
 0.0195861714     3     4     8     7
 -0.0000000003     3     4     8     8
 0.0000000001     3     4     8     9
 0.0195861713     3     4     9     6
 -0.0642140825     3     4     9     7
 0.0000000001     3     4     9     8
 0.0062260330     3     4    10     1
 -0.0204207652     3     4    10     3
 0.0419291055     3     4    10     5
 0.0000000085     3     4    10    10
 0.0546368490     3     5     1     1
 -0.0000000009     3     5     1     2
 0.0112862022     3     5     1     3
 -0.0000000002     3     5     1     4
 -0.0000000008     3     5     2     1
 0.0547503311     3     5     2     2
 -0.0000000004     3     5     2     3
 0.0024504657     3     5     2     4
 -0.0025283004     3     5     2    10
 -0.0000000003     3     5     4     1
 0.0122527272     3     5     4     2
 0.0000000005     3     5     4     3
 0.1070488493     3     5     4     4
 0.0531360046     3     5     4    10
 -0.0221872450     3     5     5     1
 0.0000000005     3     5     5     2
 -0.4375337377     3     5     5     3
 0.0000000005     3     5     5     4
 -0.0000000011     3     5     5    10
 0.0501258325     3     5     6     6
 -0.0000000008     3     5     6     8
 -0.0000000004     3     5     6     9
 0.0501258325     3     5     7     7
 -0.0000000001     3     5     7     8
 0.0000000009     3     5     7     9
 -0.0000000012     3     5     8     6
 -0.0000000002     3     5     8     7
 0.0391789210     3     5     8     8
 -0.0000000005     3     5     9     6
 0.0000000013     3     5     9     7
 0.0391789210     3     5     9     9
 0.0000000002     3     5    10     1
 -0.0152884713     3     5    10     2
 -0.0000000007     3     5    10     3