&FCI NORB= 10,NELEC= 14,MS2=0,
 ORBSYM=1,1,1,1,1,1,1,1,1,1
 ISYM=1,
&END
 0.4813057159     1     1     2     2
 -0.0076190176     1     1     2     4
 0.0009254186     1     1     2    10
 0.8022076817     1     1     3     3
 0.0000000011     1     1     3     4
 0.1037735401     1     1     3     5
 -0.0000000030     1     1     3    10
 -0.0076190176     1     1     4     2
 0.0000000011     1     1     4     3
 0.6361107365     1     1     4     4
 0.0000000004     1     1     4     5
 -0.0953031869     1     1     4    10
 0.1037735401     1     1     5     3
 0.0000000004     1     1     5     4
 0.6757433963     1     1     5     5
 0.0000000109     1     1     5    10
 0.6826625997     1     1     6     6
 -0.0000000001     1     1     6     7
 -0.0000000062     1     1     6     8
 -0.0000000005     1     1     6     9
 -0.0000000001     1     1     7     6
 0.6826625993     1     1     7     7
 -0.0000000024     1     1     7     8
 -0.0000000107     1     1     7     9
 -0.0000000062     1     1     8     6
 -0.0000000024     1     1     8     7
 0.5798737962     1     1     8     8
 -0.0000000005     1     1     9     6
 -0.0000000107     1     1     9     7
 0.5798737962     1     1     9     9
 0.0009254186     1     1    10     2
 -0.0000000030     1     1    10     3
 -0.0953031869     1     1    10     4
 0.0000000109     1     1    10     5
 0.3134274867     1     1    10    10
 -0.4813057159     1     2     2     1
 0.0104480062     1     2     2     3
 0.0168120226     1     2     2     5
 0.0000000002     1     2     2    10
 -0.0000000007     1     2     3     3
 -0.1439914004     1     2     3     4
 0.0000000009     1     2     3     5
 0.0595388305     1     2     3    10
 0.0076190176     1     2     4     1
 -0.1443332989     1     2     4     3
 0.0000000008     1     2     4     4
 0.2329215151     1     2     4     5
 0.0000000170     1     2     4    10
 0.0000000005     1     2     5     3
 0.2334601193     1     2     5     4
 0.0000000001     1     2     5     5
 -0.0164425351     1     2     5    10
 -0.0000000014     1     2     6     6
 0.1762973790     1     2     6     8
 -0.0193230113     1     2     6     9
 -0.0000000015     1     2     7     7
 0.0193230114     1     2     7     8
 0.1762973794     1     2     7     9
 0.1758123864     1     2     8     6
 0.0192698540     1     2     8     7
 -0.0000000006     1     2     8     8
 0.0000000001     1     2     8     9
 -0.0192698538     1     2     9     6
 0.1758123867     1     2     9     7
 0.0000000001     1     2     9     8
 -0.0000000002     1     2     9     9
 -0.0009254186     1     2    10     1
 0.0595537241     1     2    10     3
 0.0000000173     1     2    10     4
 -0.0163642253     1     2    10     5
 0.0000000002     1     2    10    10
 -0.0104480062     1     3     2     2
 0.0003412151     1     3     2     4
 0.0000000004     1     3     2     5
 -0.0000325234     1     3     2    10
 -0.8022076817     1     3     3     1
 0.0000000007     1     3     3     2
 0.0000000001     1     3     3     4
 0.0221966086     1     3     3     5
 0.0000000002     1     3     3    10
 -0.0000000011     1     3     4     1
 0.1443332989     1     3     4     2
 0.0093020624     1     3     4     4
 0.0000000006     1     3     4     5
 -0.0008136798     1     3     4    10
 -0.1037735401     1     3     5     1
 -0.0000000005     1     3     5     2
 0.0000000002     1     3     5     4
 0.0248308877     1     3     5     5
 0.0000000004     1     3     5    10
 0.0178187400     1     3     6     6
 -0.0000000001     1     3     6     7
 -0.0000000002     1     3     6     9
 -0.0000000001     1     3     7     6
 0.0178187397     1     3     7     7
 -0.0000000004     1     3     7     8
 -0.0000000009     1     3     7     9
 -0.0000000005     1     3     8     7
 0.0126950140     1     3     8     8
 -0.0000000001     1     3     8     9
 -0.0000000003     1     3     9     6
 -0.0000000014     1     3     9     7
 -0.0000000001     1     3     9     8
 0.0126950138     1     3     9     9
 0.0000000030     1     3    10     1
 -0.0595537241     1     3    10     2
 -0.0001174506     1     3    10     4
 0.0000000002     1     3    10     5
 0.0010588944     1     3    10    10
 0.0076190176     1     4     2     1
 -0.0003412151     1     4     2     3
 -0.0005395666     1     4     2     5
 -0.0000000001     1     4     2    10
 -0.0000000011     1     4     3     1
 0.1439914004     1     4     3     2
 -0.0000000001     1     4     3     3
 0.0000000002     1     4     3     5
 -0.0006049895     1     4     3    10
 -0.6361107365     1     4     4     1
 -0.0000000008     1     4     4     2
 -0.0093020624     1     4     4     3
 -0.0024460925     1     4     4     5
 0.0000000007     1     4     4    10
 -0.0000000004     1     4     5     1
 -0.2334601193     1     4     5     2
 -0.0000000002     1     4     5     3
 -0.0000000010     1     4     5     5
 -0.0015811570     1     4     5    10
 -0.0000000006     1     4     6     6
 0.0000000004     1     4     6     7
 -0.0105989316     1     4     6     8
 0.0011616922     1     4     6     9
 0.0000000004     1     4     7     6
 0.0000000010     1     4     7     7
 -0.0011616922     1     4     7     8
 -0.0105989317     1     4     7     9
 -0.0120075469     1     4     8     6
 -0.0013160829     1     4     8     7
 -0.0000000001     1     4     8     8
 -0.0000000004     1     4     8     9
 0.0013160829     1     4     9     6
 -0.0120075470     1     4     9     7
 -0.0000000004     1     4     9     8
 -0.0000000012     1     4     9     9
 0.0953031869     1     4    10     1
 -0.0000000173     1     4    10     2
 0.0001174506     1     4    10     3
 -0.0006449437     1     4    10     5
 -0.0000000003     1     4    10    10
 -0.0168120226     1     5     2     2
 -0.0000000004     1     5     2     3
 0.0005395666     1     5     2     4
 -0.0000692990     1     5     2    10
 -0.1037735401     1     5     3     1
 -0.0000000009     1     5     3     2
 -0.0221966086     1     5     3     3
 -0.0000000002     1     5     3     4
 -0.0000000001     1     5     3    10
 -0.0000000004     1     5     4     1
 -0.2329215151     1     5     4     2
 -0.0000000006     1     5     4     3
 0.0024460925     1     5     4     4
 -0.0007394662     1     5     4    10
 -0.6757433963     1     5     5     1
 -0.0000000001     1     5     5     2
 -0.0248308877     1     5     5     3
 0.0000000010     1     5     5     4
 -0.0000000025     1     5     5    10
 -0.0151175791     1     5     6     6
 0.0000000005     1     5     6     8
 -0.0151175789     1     5     7     7
 0.0000000001     1     5     7     8
 0.0000000006     1     5     7     9
 0.0000000001     1     5     8     6
 -0.0079261392     1     5     8     8
 -0.0079261392     1     5     9     9
 -0.0000000109     1     5    10     1
 0.0163642253     1     5    10     2
 -0.0000000002     1     5    10     3
 0.0006449437     1     5    10     4
 0.0009281509     1     5    10    10
 0.0004549532     1     6     2     8
 -0.0000498649     1     6     2     9
 0.0000000001     1     6     3     8
 0.0025399425     1     6     4     8
 -0.0002783895     1     6     4     9
 0.0000000002     1     6     5     8
 -0.6826625997     1     6     6     1
 0.0000000014     1     6     6     2
 -0.0178187400     1     6     6     3
 0.0000000006     1     6     6     4
 0.0151175791     1     6     6     5
 -0.0000000005     1     6     6    10
 0.0000000001     1     6     7     1
 0.0000000001     1     6     7     3
 -0.0000000004     1     6     7     4
 0.0000000003     1     6     7    10
 0.0000000062     1     6     8     1
 -0.1758123864     1     6     8     2
 0.0120075469     1     6     8     4
 -0.0000000001     1     6     8     5
 -0.0058270507     1     6     8    10
 0.0000000005     1     6     9     1
 0.0192698538     1     6     9     2
 0.0000000003     1     6     9     3
 -0.0013160829     1     6     9     4
 0.0006386717     1     6     9    10
 -0.0006326792     1     6    10     8
 0.0000693445     1     6    10     9
 0.0000498650     1     7     2     8
 0.0004549532     1     7     2     9
 0.0000000002     1     7     3     9
 0.0002783895     1     7     4     8
 0.0025399425     1     7     4     9
 0.0000000002     1     7     5     9
 0.0000000001     1     7     6     1
 0.0000000001     1     7     6     3
 -0.0000000004     1     7     6     4
 0.0000000003     1     7     6    10
 -0.6826625993     1     7     7     1
 0.0000000015     1     7     7     2
 -0.0178187397     1     7     7     3
 -0.0000000010     1     7     7     4
 0.0151175789     1     7     7     5
 0.0000000005     1     7     7    10
 0.0000000024     1     7     8     1
 -0.0192698540     1     7     8     2
 0.0000000005     1     7     8     3
 0.0013160829     1     7     8     4
 -0.0006386719     1     7     8    10
 0.0000000107     1     7     9     1
 -0.1758123867     1     7     9     2
 0.0000000014     1     7     9     3
 0.0120075470     1     7     9     4
 -0.0058270509     1     7     9    10
 -0.0000693445     1     7    10     8
 -0.0006326793     1     7    10     9
 -0.0004549532     1     8     2     6
 -0.0000498650     1     8     2     7
 -0.0000000001     1     8     3     6
 -0.0025399425     1     8     4     6
 -0.0002783895     1     8     4     7
 -0.0000000002     1     8     5     6
 0.0000000062     1     8     6     1
 -0.1762973790     1     8     6     2
 0.0105989316     1     8     6     4
 -0.0000000005     1     8     6     5
 -0.0053749265     1     8     6    10
 0.0000000024     1     8     7     1
 -0.0193230114     1     8     7     2
 0.0000000004     1     8     7     3
 0.0011616922     1     8     7     4
 -0.0000000001     1     8     7     5
 -0.0005891169     1     8     7    10
 -0.5798737962     1     8     8     1
 0.0000000006     1     8     8     2
 -0.0126950140     1     8     8     3
 0.0000000001     1     8     8     4
 0.0079261392     1     8     8     5
 0.0000000051     1     8     8    10
 -0.0000000001     1     8     9     2
 0.0000000001     1     8     9     3
 0.0000000004     1     8     9     4
 -0.0000000003     1     8     9    10
 0.0006326792     1     8    10     6
 0.0000693445     1     8    10     7
 0.0000498649     1     9     2     6
 -0.0004549532     1     9     2     7
 -0.0000000002     1     9     3     7
 0.0002783895     1     9     4     6
 -0.0025399425     1     9     4     7
 -0.0000000002     1     9     5     7
 0.0000000005     1     9     6     1
 0.0193230113     1     9     6     2
 0.0000000002     1     9     6     3
 -0.0011616922     1     9     6     4
 0.0005891169     1     9     6    10
 0.0000000107     1     9     7     1
 -0.1762973794     1     9     7     2
 0.0000000009     1     9     7     3
 0.0105989317     1     9     7     4
 -0.0000000006     1     9     7     5
 -0.0053749265     1     9     7    10
 -0.0000000001     1     9     8     2
 0.0000000001     1     9     8     3
 0.0000000004     1     9     8     4
 -0.0000000003     1     9     8    10
 -0.5798737962     1     9     9     1
 0.0000000002     1     9     9     2
 -0.0126950138     1     9     9     3
 0.0000000012     1     9     9     4
 0.0079261392     1     9     9     5
 0.0000000043     1     9     9    10
 -0.0000693445     1     9    10     6
 0.0006326793     1     9    10     7
 -0.0009254186     1    10     2     1
 -0.0000000002     1    10     2     2
 0.0000325234     1    10     2     3
 0.0000000001     1    10     2     4
 0.0000692990     1    10     2     5
 0.0000000030     1    10     3     1
 -0.0595388305     1    10     3     2
 -0.0000000002     1    10     3     3
 0.0006049895     1    10     3     4
 0.0000000001     1    10     3     5
 0.0953031869     1    10     4     1
 -0.0000000170     1    10     4     2
 0.0008136798     1    10     4     3
 -0.0000000007     1    10     4     4
 0.0007394662     1    10     4     5
 -0.0000000109     1    10     5     1
 0.0164425351     1    10     5     2
 -0.0000000004     1    10     5     3
 0.0015811570     1    10     5     4
 0.0000000025     1    10     5     5
 0.0000000005     1    10     6     6
 -0.0000000003     1    10     6     7
 0.0053749265     1    10     6     8
 -0.0005891169     1    10     6     9
 -0.0000000003     1    10     7     6
 -0.0000000005     1    10     7     7
 0.0005891169     1    10     7     8
 0.0053749265     1    10     7     9
 0.0058270507     1    10     8     6
 0.0006386719     1    10     8     7
 -0.0000000051     1    10     8     8
 0.0000000003     1    10     8     9
 -0.0006386717     1    10     9     6
 0.0058270509     1    10     9     7
 0.0000000003     1    10     9     8
 -0.0000000043     1    10     9     9
 -0.3134274867     1    10    10     1
 -0.0000000002     1    10    10     2
 -0.0010588944     1    10    10     3
 0.0000000003     1    10    10     4
 -0.0009281509     1    10    10     5
 -0.4813057159     2     1     1     2
 0.0076190176     2     1     1     4
 -0.0009254186     2     1     1    10
 0.0104480062     2     1     3     2
 -0.0000000007     2     1     3     3
 -0.1443332989     2     1     3     4
 0.0000000005     2     1     3     5
 0.0595537241     2     1     3    10
 -0.1439914004     2     1     4     3
 0.0000000008     2     1     4     4
 0.2334601193     2     1     4     5
 0.0000000173     2     1     4    10
 0.0168120226     2     1     5     2
 0.0000000009     2     1     5     3
 0.2329215151     2     1     5     4
 0.0000000001     2     1     5     5
 -0.0163642253     2     1     5    10
 -0.0000000014     2     1     6     6
 0.1758123864     2     1     6     8
 -0.0192698538     2     1     6     9
 -0.0000000015     2     1     7     7
 0.0192698540     2     1     7     8
 0.1758123867     2     1     7     9
 0.1762973790     2     1     8     6
 0.0193230114     2     1     8     7
 -0.0000000006     2     1     8     8
 0.0000000001     2     1     8     9
 -0.0193230113     2     1     9     6
 0.1762973794     2     1     9     7
 0.0000000001     2     1     9     8
 -0.0000000002     2     1     9     9
 0.0000000002     2     1    10     2
 0.0595388305     2     1    10     3
 0.0000000170     2     1    10     4
 -0.0164425351     2     1    10     5
 0.0000000002     2     1    10    10
 0.4813057159     2     2     1     1
 -0.0104480062     2     2     1     3
 -0.0168120226     2     2     1     5
 -0.0000000002     2     2     1    10
 -0.0104480062     2     2     3     1
 0.8024575413     2     2     3     3
 0.0000000012     2     2     3     4
 0.1044022779     2     2     3     5
 -0.0000000033     2     2     3    10
 0.0000000012     2     2     4     3
 0.6359383785     2     2     4     4
 0.0000000006     2     2     4     5
 -0.0952594290     2     2     4    10
 -0.0168120226     2     2     5     1
 0.1044022779     2     2     5     3
 0.0000000006     2     2     5     4
 0.6769729543     2     2     5     5
 0.0000000105     2     2     5    10
 0.6832502954     2     2     6     6
 -0.0000000001     2     2     6     7
 -0.0000000063     2     2     6     8
 -0.0000000005     2     2     6     9
 -0.0000000001     2     2     7     6
 0.6832502950     2     2     7     7
 -0.0000000023     2     2     7     8
 -0.0000000107     2     2     7     9
 -0.0000000063     2     2     8     6
 -0.0000000023     2     2     8     7
 0.5795793557     2     2     8     8
 -0.0000000005     2     2     9     6
 -0.0000000107     2     2     9     7
 0.5795793557     2     2     9     9
 -0.0000000002     2     2    10     1
 -0.0000000033     2     2    10     3
 -0.0952594290     2     2    10     4
 0.0000000105     2     2    10     5
 0.3134296559     2     2    10    10
 0.0104480062     2     3     1     2
 -0.0003412151     2     3     1     4
 -0.0000000004     2     3     1     5
 0.0000325234     2     3     1    10
 0.0000000007     2     3     3     1
 -0.8024575413     2     3     3     2
 0.0128742626     2     3     3     4
 -0.0021139759     2     3     3    10
 0.1439914004     2     3     4     1
 -0.0000000012     2     3     4     2
 0.0000000009     2     3     4     4
 0.0174677028     2     3     4     5
 -0.0000000011     2     3     4    10
 -0.0000000009     2     3     5     1
 -0.1044022779     2     3     5     2
 0.0232909356     2     3     5     4
 0.0000000015     2     3     5     5
 -0.0036258015     2     3     5    10
 0.0000000011     2     3     6     6
 -0.0000000004     2     3     6     7
 0.0215044738     2     3     6     8
 -0.0023569902     2     3     6     9
 -0.0000000004     2     3     7     6
 -0.0000000005     2     3     7     7
 0.0023569902     2     3     7     8
 0.0215044736     2     3     7     9
 0.0142166095     2     3     8     6
 0.0015582064     2     3     8     7
 0.0000000005     2     3     8     8
 0.0000000004     2     3     8     9
 -0.0015582064     2     3     9     6
 0.0142166095     2     3     9     7
 0.0000000004     2     3     9     8
 0.0000000016     2     3     9     9
 -0.0595388305     2     3    10     1
 0.0000000033     2     3    10     2
 -0.0000000006     2     3    10     4
 -0.0011754781     2     3    10     5
 -0.0000000195     2     3    10    10
 -0.0076190176     2     4     1     1
 0.0003412151     2     4     1     3
 0.0005395666     2     4     1     5
 0.0000000001     2     4     1    10
 0.1443332989     2     4     3     1
 -0.0000000012     2     4     3     2
 -0.0128742626     2     4     3     3
 -0.0058096199     2     4     3     5
 -0.0000000004     2     4     3    10
 -0.0000000008     2     4     4     1
 -0.6359383785     2     4     4     2
 -0.0000000009     2     4     4     3
 -0.0000000003     2     4     4     5
 -0.0005908498     2     4     4    10
 -0.2329215151     2     4     5     1
 -0.0000000006     2     4     5     2
 -0.0232909356     2     4     5     3
 -0.0210142910     2     4     5     5
 -0.0000000014     2     4     5    10
 -0.0201945765     2     4     6     6
 0.0000000001     2     4     6     7
 0.0000000003     2     4     6     9
 0.0000000001     2     4     7     6
 -0.0201945761     2     4     7     7
 0.0000000004     2     4     7     8
 0.0000000009     2     4     7     9
 -0.0000000010     2     4     8     6
 0.0000000003     2     4     8     7
 -0.0162305594     2     4     8     8
 0.0000000001     2     4     8     9
 0.0000000004     2     4     9     6
 0.0000000001     2     4     9     7
 0.0000000001     2     4     9     8
 -0.0162305593     2     4     9     9
 -0.0000000170     2     4    10     1
 0.0952594290     2     4    10     2
 0.0000000006     2     4    10     3
 -0.0000000015     2     4    10     5
 0.0001916676     2     4    10    10
 0.0168120226     2     5     1     2
 0.0000000004     2     5     1     3
 -0.0005395666     2     5     1     4
 0.0000692990     2     5     1    10
 -0.0000000005     2     5     3     1
 -0.1044022779     2     5     3     2
 0.0058096199     2     5     3     4
 -0.0022027146     2     5     3    10
 -0.2334601193     2     5     4     1
 -0.0000000006     2     5     4     2
 -0.0174677028     2     5     4     3
 0.0000000003     2     5     4     4
 0.0000000001     2     5     4    10
 -0.0000000001     2     5     5     1
 -0.6769729543     2     5     5     2
 -0.0000000015     2     5     5     3
 0.0210142910     2     5     5     4
 -0.0051862622     2     5     5    10
 0.0000000001     2     5     6     7
 0.0000892918     2     5     6     8
 -0.0000097868     2     5     6     9
 0.0000000001     2     5     7     6
 0.0000000004     2     5     7     7
 0.0000097868     2     5     7     8
 0.0000892916     2     5     7     9
 -0.0018153598     2     5     8     6
 -0.0001989719     2     5     8     7
 -0.0000000002     2     5     8     9
 0.0001989718     2     5     9     6
 -0.0018153598     2     5     9     7
 -0.0000000002     2     5     9     8
 -0.0000000004     2     5     9     9
 0.0164425351     2     5    10     1
 -0.0000000105     2     5    10     2
 0.0011754781     2     5    10     3
 0.0000000015     2     5    10     4
 -0.0000000194     2     5    10    10
 -0.0004549532     2     6     1     8
 0.0000498649     2     6     1     9
 0.0056344134     2     6     3     8
 -0.0006175579     2     6     3     9
 0.0000000009     2     6     4     8
 -0.0000000001     2     6     4     9
 0.0014566375     2     6     5     8
 -0.0001596543     2     6     5     9
 0.0000000014     2     6     6     1
 -0.6832502954     2     6     6     2
 -0.0000000011     2     6     6     3
 0.0201945765     2     6     6     4
 -0.0071251041     2     6     6    10
 0.0000000001     2     6     7     2
 0.0000000004     2     6     7     3
 -0.0000000001     2     6     7     4
 -0.0000000001     2     6     7     5
 -0.1762973790     2     6     8     1
 0.0000000063     2     6     8     2
 -0.0142166095     2     6     8     3
 0.0000000010     2     6     8     4
 0.0018153598     2     6     8     5
 -0.0000000140     2     6     8    10
 0.0193230113     2     6     9     1
 0.0000000005     2     6     9     2
 0.0015582064     2     6     9     3
 -0.0000000004     2     6     9     4
 -0.0001989718     2     6     9     5
 0.0000000017     2     6     9    10
 -0.0000000135     2     6    10     8
 0.0000000014     2     6    10     9
 -0.0000498650     2     7     1     8
 -0.0004549532     2     7     1     9
 0.0006175579     2     7     3     8
 0.0056344134     2     7     3     9
 0.0000000001     2     7     4     8
 0.0000000008     2     7     4     9
 0.0001596543     2     7     5     8
 0.0014566375     2     7     5     9
 0.0000000001     2     7     6     2
 0.0000000004     2     7     6     3
 -0.0000000001     2     7     6     4
 -0.0000000001     2     7     6     5
 0.0000000015     2     7     7     1
 -0.6832502950     2     7     7     2
 0.0000000005     2     7     7     3
 0.0201945761     2     7     7     4
 -0.0000000004     2     7     7     5
 -0.0071251039     2     7     7    10
 -0.0193230114     2     7     8     1
 0.0000000023     2     7     8     2
 -0.0015582064     2     7     8     3
 -0.0000000003     2     7     8     4
 0.0001989719     2     7     8     5
 -0.0000000012     2     7     8    10
 -0.1762973794     2     7     9     1
 0.0000000107     2     7     9     2
 -0.0142166095     2     7     9     3
 -0.0000000001     2     7     9     4
 0.0018153598     2     7     9     5
 -0.0000000132     2     7     9    10
 -0.0000000015     2     7    10     8
 -0.0000000134     2     7    10     9
 0.0004549532     2     8     1     6
 0.0000498650     2     8     1     7
 -0.0056344134     2     8     3     6
 -0.0006175579     2     8     3     7
 -0.0000000009     2     8     4     6
 -0.0000000001     2     8     4     7
 -0.0014566375     2     8     5     6
 -0.0001596543     2     8     5     7
 -0.1758123864     2     8     6     1
 0.0000000063     2     8     6     2
 -0.0215044738     2     8     6     3
 -0.0000892918     2     8     6     5
 -0.0000000013     2     8     6    10
 -0.0192698540     2     8     7     1
 0.0000000023     2     8     7     2
 -0.0023569902     2     8     7     3
 -0.0000000004     2     8     7     4
 -0.0000097868     2     8     7     5
 0.0000000001     2     8     7    10
 0.0000000006     2     8     8     1
 -0.5795793557     2     8     8     2
 -0.0000000005     2     8     8     3
 0.0162305594     2     8     8     4
 -0.0059931469     2     8     8    10
 -0.0000000001     2     8     9     1
 -0.0000000004     2     8     9     3
 -0.0000000001     2     8     9     4
 0.0000000002     2     8     9     5
 0.0000000001     2     8     9    10
 0.0000000135     2     8    10     6
 0.0000000015     2     8    10     7
 -0.0000498649     2     9     1     6
 0.0004549532     2     9     1     7
 0.0006175579     2     9     3     6
 -0.0056344134     2     9     3     7
 0.0000000001     2     9     4     6
 -0.0000000008     2     9     4     7
 0.0001596543     2     9     5     6
 -0.0014566375     2     9     5     7
 0.0192698538     2     9     6     1
 0.0000000005     2     9     6     2
 0.0023569902     2     9     6     3
 -0.0000000003     2     9     6     4
 0.0000097868     2     9     6     5
 0.0000000002     2     9     6    10
 -0.1758123867     2     9     7     1
 0.0000000107     2     9     7     2
 -0.0215044736     2     9     7     3
 -0.0000000009     2     9     7     4
 -0.0000892916     2     9     7     5
 -0.0000000007     2     9     7    10
 -0.0000000001     2     9     8     1
 -0.0000000004     2     9     8     3
 -0.0000000001     2     9     8     4
 0.0000000002     2     9     8     5
 0.0000000001     2     9     8    10
 0.0000000002     2     9     9     1
 -0.5795793557     2     9     9     2
 -0.0000000016     2     9     9     3
 0.0162305593     2     9     9     4
 0.0000000004     2     9     9     5
 -0.0059931467     2     9     9    10
 -0.0000000014     2     9    10     6
 0.0000000134     2     9    10     7
 0.0009254186     2    10     1     1
 0.0000000002     2    10     1     2
 -0.0000325234     2    10     1     3
 -0.0000000001     2    10     1     4
 -0.0000692990     2    10     1     5
 -0.0595537241     2    10     3     1
 0.0000000033     2    10     3     2
 0.0021139759     2    10     3     3
 0.0000000004     2    10     3     4
 0.0022027146     2    10     3     5
 -0.0000000173     2    10     4     1
 0.0952594290     2    10     4     2
 0.0000000011     2    10     4     3
 0.0005908498     2    10     4     4
 -0.0000000001     2    10     4     5
 0.0163642253     2    10     5     1
 -0.0000000105     2    10     5     2
 0.0036258015     2    10     5     3
 0.0000000014     2    10     5     4
 0.0051862622     2    10     5     5
 0.0071251041     2    10     6     6
 0.0000000013     2    10     6     8
 -0.0000000002     2    10     6     9
 0.0071251039     2    10     7     7
 -0.0000000001     2    10     7     8
 0.0000000007     2    10     7     9
 0.0000000140     2    10     8     6
 0.0000000012     2    10     8     7
 0.0059931469     2    10     8     8
 -0.0000000001     2    10     8     9
 -0.0000000017     2    10     9     6
 0.0000000132     2    10     9     7
 -0.0000000001     2    10     9     8
 0.0059931467     2    10     9     9
 -0.0000000002     2    10    10     1
 -0.3134296559     2    10    10     2
 0.0000000195     2    10    10     3
 -0.0001916676     2    10    10     4
 0.0000000194     2    10    10     5
 -0.8022076817     3     1     1     3
 -0.0000000011     3     1     1     4
 -0.1037735401     3     1     1     5
 0.0000000030     3     1     1    10
 -0.0104480062     3     1     2     2
 0.0000000007     3     1     2     3
 0.1443332989     3     1     2     4
 -0.0000000005     3     1     2     5
 -0.0595537241     3     1     2    10
 0.0003412151     3     1     4     2
 0.0000000001     3     1     4     3
 0.0093020624     3     1     4     4
 0.0000000002     3     1     4     5
 -0.0001174506     3     1     4    10
 0.0000000004     3     1     5     2
 0.0221966086     3     1     5     3
 0.0000000006     3     1     5     4
 0.0248308877     3     1     5     5
 0.0000000002     3     1     5    10
 0.0178187400     3     1     6     6
 -0.0000000001     3     1     6     7
 -0.0000000003     3     1     6     9
 -0.0000000001     3     1     7     6
 0.0178187397     3     1     7     7
 -0.0000000005     3     1     7     8
 -0.0000000014     3     1     7     9
 -0.0000000004     3     1     8     7
 0.0126950140     3     1     8     8
 -0.0000000001     3     1     8     9
 -0.0000000002     3     1     9     6
 -0.0000000009     3     1     9     7
 -0.0000000001     3     1     9     8
 0.0126950138     3     1     9     9
 -0.0000325234     3     1    10     2
 0.0000000002     3     1    10     3
 -0.0008136798     3     1    10     4
 0.0000000004     3     1    10     5
 0.0010588944     3     1    10    10
 0.0000000007     3     2     1     3
 0.1439914004     3     2     1     4
 -0.0000000009     3     2     1     5
 -0.0595388305     3     2     1    10
 0.0104480062     3     2     2     1
 -0.8024575413     3     2     2     3
 -0.0000000012     3     2     2     4
 -0.1044022779     3     2     2     5
 0.0000000033     3     2     2    10
 -0.0003412151     3     2     4     1
 0.0128742626     3     2     4     3
 0.0000000009     3     2     4     4
 0.0232909356     3     2     4     5
 -0.0000000006     3     2     4    10
 -0.0000000004     3     2     5     1
 0.0174677028     3     2     5     4
 0.0000000015     3     2     5     5
 -0.0011754781     3     2     5    10
 0.0000000011     3     2     6     6
 -0.0000000004     3     2     6     7
 0.0142166095     3     2     6     8
 -0.0015582064     3     2     6     9
 -0.0000000004     3     2     7     6
 -0.0000000005     3     2     7     7
 0.0015582064     3     2     7     8
 0.0142166095     3     2     7     9
 0.0215044738     3     2     8     6
 0.0023569902     3     2     8     7
 0.0000000005     3     2     8     8
 0.0000000004     3     2     8     9
 -0.0023569902     3     2     9     6
 0.0215044736     3     2     9     7
 0.0000000004     3     2     9     8
 0.0000000016     3     2     9     9
 0.0000325234     3     2    10     1
 -0.0021139759     3     2    10     3
 -0.0000000011     3     2    10     4
 -0.0036258015     3     2    10     5
 -0.0000000195     3     2    10    10
 0.8022076817     3     3     1     1
 -0.0000000007     3     3     1     2
 -0.0000000001     3     3     1     4
 -0.0221966086     3     3     1     5
 -0.0000000002     3     3     1    10
 -0.0000000007     3     3     2     1
 0.8024575413     3     3     2     2
 -0.0128742626     3     3     2     4
 0.0021139759     3     3     2    10
 -0.0000000001     3     3     4     1