&FCI NORB= 10,NELEC= 14,MS2=0,
 ORBSYM=1,1,1,1,1,1,1,1,1,1
 ISYM=1,
&END
 0.2035092346     1     1     2     2
 0.0000000304     1     1     2     3
 -0.0001854655     1     1     2     4
 0.0000005940     1     1     2     5
 0.0025494739     1     1     2    10
 0.0000000304     1     1     3     2
 0.5540053773     1     1     3     3
 -0.0001481080     1     1     3     4
 0.0083114092     1     1     3     5
 -0.0000128690     1     1     3    10
 -0.0001854655     1     1     4     2
 -0.0001481080     1     1     4     3
 0.5609598704     1     1     4     4
 0.0000239684     1     1     4     5
 0.0276398430     1     1     4    10
 0.0000005940     1     1     5     2
 0.0083114092     1     1     5     3
 0.0000239684     1     1     5     4
 0.5531382918     1     1     5     5
 -0.0001301435     1     1     5    10
 0.5585558586     1     1     6     6
 -0.0001249953     1     1     6     8
 0.0000510608     1     1     6     9
 0.5585558584     1     1     7     7
 0.0000510608     1     1     7     8
 0.0001249953     1     1     7     9
 -0.0001249953     1     1     8     6
 0.0000510608     1     1     8     7
 0.5359979711     1     1     8     8
 0.0000510608     1     1     9     6
 0.0001249953     1     1     9     7
 0.5359979711     1     1     9     9
 0.0025494739     1     1    10     2
 -0.0000128690     1     1    10     3
 0.0276398430     1     1    10     4
 -0.0001301435     1     1    10     5
 0.5593774357     1     1    10    10
 -0.2035092346     1     2     2     1
 -0.0001450339     1     2     2     3
 -0.0000000388     1     2     2     4
 -0.0028406865     1     2     2     5
 0.0000005331     1     2     2    10
 -0.0000000304     1     2     3     1
 -0.0000002483     1     2     3     3
 0.3540486030     1     2     3     4
 0.0000000191     1     2     3     5
 0.0307478487     1     2     3    10
 0.0001854655     1     2     4     1
 0.3540604806     1     2     4     3
 0.0000002410     1     2     4     4
 -0.0572913621     1     2     4     5
 0.0000000105     1     2     4    10
 -0.0000005940     1     2     5     1
 0.0000000192     1     2     5     3
 -0.0573003897     1     2     5     4
 -0.0000000401     1     2     5     5
 0.3111634813     1     2     5    10
 -0.0000000503     1     2     6     6
 0.2988323553     1     2     6     8
 -0.1220734212     1     2     6     9
 -0.0000000503     1     2     7     7
 -0.1220734212     1     2     7     8
 -0.2988323554     1     2     7     9
 0.2988015978     1     2     8     6
 -0.1220608567     1     2     8     7
 0.0000000348     1     2     8     8
 -0.1220608567     1     2     9     6
 -0.2988015979     1     2     9     7
 0.0000000348     1     2     9     9
 -0.0025494739     1     2    10     1
 0.0307378465     1     2    10     3
 0.0000000105     1     2    10     4
 0.3110933156     1     2    10     5
 0.0000000339     1     2    10    10
 -0.0000000304     1     3     2     1
 0.0001450339     1     3     2     2
 -0.0000116763     1     3     2     4
 0.0000099419     1     3     2    10
 -0.5540053773     1     3     3     1
 0.0000002483     1     3     3     2
 -0.0000000347     1     3     3     4
 -0.0018428954     1     3     3     5
 0.0000003904     1     3     3    10
 0.0001481080     1     3     4     1
 -0.3540604806     1     3     4     2
 -0.0003578780     1     3     4     4
 -0.0000005768     1     3     4     5
 0.0025841418     1     3     4    10
 -0.0083114092     1     3     5     1
 -0.0000000192     1     3     5     2
 -0.0000003426     1     3     5     4
 -0.0204121914     1     3     5     5
 0.0000041675     1     3     5    10
 -0.0212051933     1     3     6     6
 0.0000037888     1     3     6     8
 -0.0000015477     1     3     6     9
 -0.0212051932     1     3     7     7
 -0.0000015477     1     3     7     8
 -0.0000037888     1     3     7     9
 0.0000034961     1     3     8     6
 -0.0000014282     1     3     8     7
 -0.0178165752     1     3     8     8
 -0.0000014282     1     3     9     6
 -0.0000034960     1     3     9     7
 -0.0178165752     1     3     9     9
 0.0000128690     1     3    10     1
 -0.0307378465     1     3    10     2
 0.0014662051     1     3    10     4
 0.0000036343     1     3    10     5
 -0.0187861971     1     3    10    10
 0.0001854655     1     4     2     1
 0.0000000388     1     4     2     2
 0.0000116763     1     4     2     3
 0.0000087038     1     4     2     5
 0.0001481080     1     4     3     1
 -0.3540486030     1     4     3     2
 0.0000000347     1     4     3     3
 -0.0000002311     1     4     3     5
 0.0010601994     1     4     3    10
 -0.5609598704     1     4     4     1
 -0.0000002410     1     4     4     2
 0.0003578780     1     4     4     3
 0.0002292622     1     4     4     5
 -0.0000000564     1     4     4    10
 -0.0000239684     1     4     5     1
 0.0573003897     1     4     5     2
 0.0000003426     1     4     5     3
 0.0000041827     1     4     5     5
 -0.0193965002     1     4     5    10
 0.0000044676     1     4     6     6
 -0.0179403631     1     4     6     8
 0.0073286626     1     4     6     9
 0.0000044676     1     4     7     7
 0.0073286626     1     4     7     8
 0.0179403631     1     4     7     9
 -0.0171169689     1     4     8     6
 0.0069923050     1     4     8     7
 0.0000038791     1     4     8     8
 0.0069923050     1     4     9     6
 0.0171169688     1     4     9     7
 0.0000038791     1     4     9     9
 -0.0276398430     1     4    10     1
 -0.0000000105     1     4    10     2
 -0.0014662051     1     4    10     3
 -0.0180344629     1     4    10     5
 0.0000041925     1     4    10    10
 -0.0000005940     1     5     2     1
 0.0028406865     1     5     2     2
 -0.0000087038     1     5     2     4
 0.0000704613     1     5     2    10
 -0.0083114092     1     5     3     1
 -0.0000000191     1     5     3     2
 0.0018428954     1     5     3     3
 0.0000002311     1     5     3     4
 0.0000003726     1     5     3    10
 -0.0000239684     1     5     4     1
 0.0572913621     1     5     4     2
 0.0000005768     1     5     4     3
 -0.0002292622     1     5     4     4
 -0.0004364609     1     5     4    10
 -0.5531382918     1     5     5     1
 0.0000000401     1     5     5     2
 0.0204121914     1     5     5     3
 -0.0000041827     1     5     5     4
 -0.0000000342     1     5     5    10
 0.0024642042     1     5     6     6
 0.0000000562     1     5     6     8
 -0.0000000230     1     5     6     9
 0.0024642042     1     5     7     7
 -0.0000000230     1     5     7     8
 -0.0000000562     1     5     7     9
 0.0000001015     1     5     8     6
 -0.0000000414     1     5     8     7
 0.0020038825     1     5     8     8
 -0.0000000414     1     5     9     6
 -0.0000001015     1     5     9     7
 0.0020038825     1     5     9     9
 0.0001301435     1     5    10     1
 -0.3110933156     1     5    10     2
 -0.0000036343     1     5    10     3
 0.0180344629     1     5    10     4
 0.0055552910     1     5    10    10
 0.0000318289     1     6     2     8
 -0.0000130022     1     6     2     9
 0.0000001615     1     6     3     8
 -0.0000000660     1     6     3     9
 -0.0001221461     1     6     4     8
 0.0000498968     1     6     4     9
 0.0000000226     1     6     5     8
 -0.0000000092     1     6     5     9
 -0.5585558586     1     6     6     1
 0.0000000503     1     6     6     2
 0.0212051933     1     6     6     3
 -0.0000044676     1     6     6     4
 -0.0024642042     1     6     6     5
 -0.0000002473     1     6     6    10
 0.0001249953     1     6     8     1
 -0.2988015978     1     6     8     2
 -0.0000034961     1     6     8     3
 0.0171169689     1     6     8     4
 -0.0000001015     1     6     8     5
 0.0034634959     1     6     8    10
 -0.0000510608     1     6     9     1
 0.1220608567     1     6     9     2
 0.0000014282     1     6     9     3
 -0.0069923050     1     6     9     4
 0.0000000414     1     6     9     5
 -0.0014148427     1     6     9    10
 0.0001029921     1     6    10     8
 -0.0000420725     1     6    10     9
 -0.0000130022     1     7     2     8
 -0.0000318289     1     7     2     9
 -0.0000000660     1     7     3     8
 -0.0000001615     1     7     3     9
 0.0000498968     1     7     4     8
 0.0001221461     1     7     4     9
 -0.0000000092     1     7     5     8
 -0.0000000226     1     7     5     9
 -0.5585558584     1     7     7     1
 0.0000000503     1     7     7     2
 0.0212051932     1     7     7     3
 -0.0000044676     1     7     7     4
 -0.0024642042     1     7     7     5
 -0.0000002473     1     7     7    10
 -0.0000510608     1     7     8     1
 0.1220608567     1     7     8     2
 0.0000014282     1     7     8     3
 -0.0069923050     1     7     8     4
 0.0000000414     1     7     8     5
 -0.0014148427     1     7     8    10
 -0.0001249953     1     7     9     1
 0.2988015979     1     7     9     2
 0.0000034960     1     7     9     3
 -0.0171169688     1     7     9     4
 0.0000001015     1     7     9     5
 -0.0034634959     1     7     9    10
 -0.0000420725     1     7    10     8
 -0.0001029921     1     7    10     9
 -0.0000318289     1     8     2     6
 0.0000130022     1     8     2     7
 -0.0000001615     1     8     3     6
 0.0000000660     1     8     3     7
 0.0001221461     1     8     4     6
 -0.0000498968     1     8     4     7
 -0.0000000226     1     8     5     6
 0.0000000092     1     8     5     7
 0.0001249953     1     8     6     1
 -0.2988323553     1     8     6     2
 -0.0000037888     1     8     6     3
 0.0179403631     1     8     6     4
 -0.0000000562     1     8     6     5
 0.0036063251     1     8     6    10
 -0.0000510608     1     8     7     1
 0.1220734212     1     8     7     2
 0.0000015477     1     8     7     3
 -0.0073286626     1     8     7     4
 0.0000000230     1     8     7     5
 -0.0014731887     1     8     7    10
 -0.5359979711     1     8     8     1
 -0.0000000348     1     8     8     2
 0.0178165752     1     8     8     3
 -0.0000038791     1     8     8     4
 -0.0020038825     1     8     8     5
 -0.0000003057     1     8     8    10
 -0.0001029921     1     8    10     6
 0.0000420725     1     8    10     7
 0.0000130022     1     9     2     6
 0.0000318289     1     9     2     7
 0.0000000660     1     9     3     6
 0.0000001615     1     9     3     7
 -0.0000498968     1     9     4     6
 -0.0001221461     1     9     4     7
 0.0000000092     1     9     5     6
 0.0000000226     1     9     5     7
 -0.0000510608     1     9     6     1
 0.1220734212     1     9     6     2
 0.0000015477     1     9     6     3
 -0.0073286626     1     9     6     4
 0.0000000230     1     9     6     5
 -0.0014731887     1     9     6    10
 -0.0001249953     1     9     7     1
 0.2988323554     1     9     7     2
 0.0000037888     1     9     7     3
 -0.0179403631     1     9     7     4
 0.0000000562     1     9     7     5
 -0.0036063251     1     9     7    10
 -0.5359979711     1     9     9     1
 -0.0000000348     1     9     9     2
 0.0178165752     1     9     9     3
 -0.0000038791     1     9     9     4
 -0.0020038825     1     9     9     5
 -0.0000003057     1     9     9    10
 0.0000420725     1     9    10     6
 0.0001029921     1     9    10     7
 -0.0025494739     1    10     2     1
 -0.0000005331     1    10     2     2
 -0.0000099419     1    10     2     3
 -0.0000704613     1    10     2     5
 0.0000128690     1    10     3     1
 -0.0307478487     1    10     3     2
 -0.0000003904     1    10     3     3
 -0.0010601994     1    10     3     4
 -0.0000003726     1    10     3     5
 -0.0276398430     1    10     4     1
 -0.0000000105     1    10     4     2
 -0.0025841418     1    10     4     3
 0.0000000564     1    10     4     4
 0.0004364609     1    10     4     5
 0.0001301435     1    10     5     1
 -0.3111634813     1    10     5     2
 -0.0000041675     1    10     5     3
 0.0193965002     1    10     5     4
 0.0000000342     1    10     5     5
 0.0000002473     1    10     6     6
 -0.0036063251     1    10     6     8
 0.0014731887     1    10     6     9
 0.0000002473     1    10     7     7
 0.0014731887     1    10     7     8
 0.0036063251     1    10     7     9
 -0.0034634959     1    10     8     6
 0.0014148427     1    10     8     7
 0.0000003057     1    10     8     8
 0.0014148427     1    10     9     6
 0.0034634959     1    10     9     7
 0.0000003057     1    10     9     9
 -0.5593774357     1    10    10     1
 -0.0000000339     1    10    10     2
 0.0187861971     1    10    10     3
 -0.0000041925     1    10    10     4
 -0.0055552910     1    10    10     5
 -0.2035092346     2     1     1     2
 -0.0000000304     2     1     1     3
 0.0001854655     2     1     1     4
 -0.0000005940     2     1     1     5
 -0.0025494739     2     1     1    10
 -0.0001450339     2     1     3     2
 -0.0000002483     2     1     3     3
 0.3540604806     2     1     3     4
 0.0000000192     2     1     3     5
 0.0307378465     2     1     3    10
 -0.0000000388     2     1     4     2
 0.3540486030     2     1     4     3
 0.0000002410     2     1     4     4
 -0.0573003897     2     1     4     5
 0.0000000105     2     1     4    10
 -0.0028406865     2     1     5     2
 0.0000000191     2     1     5     3
 -0.0572913621     2     1     5     4
 -0.0000000401     2     1     5     5
 0.3110933156     2     1     5    10
 -0.0000000503     2     1     6     6
 0.2988015978     2     1     6     8
 -0.1220608567     2     1     6     9
 -0.0000000503     2     1     7     7
 -0.1220608567     2     1     7     8
 -0.2988015979     2     1     7     9
 0.2988323553     2     1     8     6
 -0.1220734212     2     1     8     7
 0.0000000348     2     1     8     8
 -0.1220734212     2     1     9     6
 -0.2988323554     2     1     9     7
 0.0000000348     2     1     9     9
 0.0000005331     2     1    10     2
 0.0307478487     2     1    10     3
 0.0000000105     2     1    10     4
 0.3111634813     2     1    10     5
 0.0000000339     2     1    10    10
 0.2035092346     2     2     1     1
 0.0001450339     2     2     1     3
 0.0000000388     2     2     1     4
 0.0028406865     2     2     1     5
 -0.0000005331     2     2     1    10
 0.0001450339     2     2     3     1
 0.5539934248     2     2     3     3
 0.0001480949     2     2     3     4
 0.0083082188     2     2     3     5
 0.0000128505     2     2     3    10
 0.0000000388     2     2     4     1
 0.0001480949     2     2     4     3
 0.5609712989     2     2     4     4
 -0.0000239655     2     2     4     5
 0.0276348383     2     2     4    10
 0.0028406865     2     2     5     1
 0.0083082188     2     2     5     3
 -0.0000239655     2     2     5     4
 0.5532147559     2     2     5     5
 0.0001301473     2     2     5    10
 0.5585970501     2     2     6     6
 0.0001249957     2     2     6     8
 -0.0000510609     2     2     6     9
 0.5585970500     2     2     7     7
 -0.0000510609     2     2     7     8
 -0.0001249957     2     2     7     9
 0.0001249957     2     2     8     6
 -0.0000510609     2     2     8     7
 0.5359703085     2     2     8     8
 -0.0000510609     2     2     9     6
 -0.0001249957     2     2     9     7
 0.5359703085     2     2     9     9
 -0.0000005331     2     2    10     1
 0.0000128505     2     2    10     3
 0.0276348383     2     2    10     4
 0.0001301473     2     2    10     5
 0.5593090236     2     2    10    10
 0.0000000304     2     3     1     1
 -0.0001450339     2     3     1     2
 0.0000116763     2     3     1     4
 -0.0000099419     2     3     1    10
 0.0000002483     2     3     3     1
 -0.5539934248     2     3     3     2
 0.0001666689     2     3     3     4
 -0.0000003868     2     3     3     5
 -0.0018732097     2     3     3    10
 -0.3540486030     2     3     4     1
 -0.0001480949     2     3     4     2
 -0.0000000748     2     3     4     4
 0.0027540451     2     3     4     5
 0.0000005397     2     3     4    10
 -0.0000000191     2     3     5     1
 -0.0083082188     2     3     5     2
 0.0016381810     2     3     5     4
 -0.0000042604     2     3     5     5
 -0.0198919315     2     3     5    10
 -0.0000044246     2     3     6     6
 -0.0180834745     2     3     6     8
 0.0073871238     2     3     6     9
 -0.0000044246     2     3     7     7
 0.0073871238     2     3     7     8
 0.0180834745     2     3     7     9
 -0.0166850325     2     3     8     6
 0.0068158583     2     3     8     7
 -0.0000037212     2     3     8     8
 0.0068158583     2     3     9     6
 0.0166850325     2     3     9     7
 -0.0000037212     2     3     9     9
 -0.0307478487     2     3    10     1
 -0.0000128505     2     3    10     2
 0.0000003067     2     3    10     4
 -0.0173441785     2     3    10     5
 -0.0000039231     2     3    10    10
 -0.0001854655     2     4     1     1
 -0.0000000388     2     4     1     2
 -0.0000116763     2     4     1     3
 -0.0000087038     2     4     1     5
 -0.3540604806     2     4     3     1
 -0.0001480949     2     4     3     2
 -0.0001666689     2     4     3     3
 0.0011009390     2     4     3     5
 0.0000002209     2     4     3    10
 -0.0000002410     2     4     4     1
 -0.5609712989     2     4     4     2
 0.0000000748     2     4     4     3
 0.0000000493     2     4     4     5
 0.0002753971     2     4     4    10
 0.0572913621     2     4     5     1
 0.0000239655     2     4     5     2
 -0.0016381810     2     4     5     3
 -0.0200238263     2     4     5     5
 -0.0000040633     2     4     5    10
 -0.0213817586     2     4     6     6
 -0.0000037581     2     4     6     8
 0.0000015352     2     4     6     9
 -0.0213817586     2     4     7     7
 0.0000015352     2     4     7     8
 0.0000037581     2     4     7     9
 -0.0000035854     2     4     8     6
 0.0000014646     2     4     8     7
 -0.0185835057     2     4     8     8
 0.0000014646     2     4     9     6
 0.0000035854     2     4     9     7
 -0.0185835057     2     4     9     9
 -0.0000000105     2     4    10     1
 -0.0276348383     2     4    10     2
 -0.0000003067     2     4    10     3
 -0.0000037774     2     4    10     5
 -0.0200810042     2     4    10    10
 0.0000005940     2     5     1     1
 -0.0028406865     2     5     1     2
 0.0000087038     2     5     1     4
 -0.0000704613     2     5     1    10
 -0.0000000192     2     5     3     1
 -0.0083082188     2     5     3     2
 0.0000003868     2     5     3     3
 -0.0011009390     2     5     3     4
 -0.0017806542     2     5     3    10
 0.0573003897     2     5     4     1
 0.0000239655     2     5     4     2
 -0.0027540451     2     5     4     3
 -0.0000000493     2     5     4     4
 -0.0000000919     2     5     4    10
 0.0000000401     2     5     5     1
 -0.5532147559     2     5     5     2
 0.0000042604     2     5     5     3
 0.0200238263     2     5     5     4
 0.0001627470     2     5     5    10
 0.0000005155     2     5     6     6
 -0.0002676395     2     5     6     8
 0.0001093311     2     5     6     9
 0.0000005155     2     5     7     7
 0.0001093311     2     5     7     8
 0.0002676395     2     5     7     9
 -0.0004840575     2     5     8     6
 0.0001977381     2     5     8     7
 0.0000004191     2     5     8     8
 0.0001977381     2     5     9     6
 0.0004840575     2     5     9     7
 0.0000004191     2     5     9     9
 -0.3111634813     2     5    10     1
 -0.0001301473     2     5    10     2
 0.0173441785     2     5    10     3
 0.0000037774     2     5    10     4
 0.0000011619     2     5    10    10
 -0.0000318289     2     6     1     8
 0.0000130022     2     6     1     9
 -0.0007712529     2     6     3     8
 0.0003150578     2     6     3     9
 -0.0000000257     2     6     4     8
 0.0000000105     2     6     4     9
 -0.0001077872     2     6     5     8
 0.0000440312     2     6     5     9
 0.0000000503     2     6     6     1
 -0.5585970501     2     6     6     2
 0.0000044246     2     6     6     3
 0.0213817586     2     6     6     4
 -0.0000005155     2     6     6     5
 0.0011797227     2     6     6    10
 -0.2988323553     2     6     8     1
 -0.0001249957     2     6     8     2
 0.0166850325     2     6     8     3
 0.0000035854     2     6     8     4
 0.0004840575     2     6     8     5
 0.0000007245     2     6     8    10
 0.1220734212     2     6     9     1
 0.0000510609     2     6     9     2
 -0.0068158583     2     6     9     3
 -0.0000014646     2     6     9     4
 -0.0001977381     2     6     9     5
 -0.0000002959     2     6     9    10
 0.0000000217     2     6    10     8
 -0.0000000089     2     6    10     9
 0.0000130022     2     7     1     8
 0.0000318289     2     7     1     9
 0.0003150578     2     7     3     8
 0.0007712529     2     7     3     9
 0.0000000105     2     7     4     8
 0.0000000257     2     7     4     9
 0.0000440312     2     7     5     8
 0.0001077872     2     7     5     9
 0.0000000503     2     7     7     1
 -0.5585970500     2     7     7     2
 0.0000044246     2     7     7     3
 0.0213817586     2     7     7     4
 -0.0000005155     2     7     7     5
 0.0011797226     2     7     7    10
 0.1220734212     2     7     8     1
 0.0000510609     2     7     8     2
 -0.0068158583     2     7     8     3
 -0.0000014646     2     7     8     4
 -0.0001977381     2     7     8     5
 -0.0000002959     2     7     8    10
 0.2988323554     2     7     9     1
 0.0001249957     2     7     9     2
 -0.0166850325     2     7     9     3
 -0.0000035854     2     7     9     4
 -0.0004840575     2     7     9     5
 -0.0000007245     2     7     9    10
 -0.0000000089     2     7    10     8
 -0.0000000217     2     7    10     9
 0.0000318289     2     8     1     6
 -0.0000130022     2     8     1     7
 0.0007712529     2     8     3     6
 -0.0003150578     2     8     3     7
 0.0000000257     2     8     4     6
 -0.0000000105     2     8     4     7
 0.0001077872     2     8     5     6
 -0.0000440312     2     8     5     7
 -0.2988015978     2     8     6     1
 -0.0001249957     2     8     6     2
 0.0180834745     2     8     6     3
 0.0000037581     2     8     6     4
 0.0002676395     2     8     6     5
 0.0000007542     2     8     6    10
 0.1220608567     2     8     7     1
 0.0000510609     2     8     7     2
 -0.0073871238     2     8     7     3
 -0.0000015352     2     8     7     4
 -0.0001093311     2     8     7     5
 -0.0000003081     2     8     7    10
 -0.0000000348     2     8     8     1
 -0.5359703085     2     8     8     2
 0.0000037212     2     8     8     3
 0.0185835057     2     8     8     4
 -0.0000004191     2     8     8     5
 0.0014635581     2     8     8    10
 -0.0000000217     2     8    10     6
 0.0000000089     2     8    10     7
 -0.0000130022     2     9     1     6
 -0.0000318289     2     9     1     7
 -0.0003150578     2     9     3     6
 -0.0007712529     2     9     3     7
 -0.0000000105     2     9     4     6
 -0.0000000257     2     9     4     7
 -0.0000440312     2     9     5     6
 -0.0001077872     2     9     5     7
 0.1220608567     2     9     6     1
 0.0000510609     2     9     6     2
 -0.0073871238     2     9     6     3
 -0.0000015352     2     9     6     4
 -0.0001093311     2     9     6     5
 -0.0000003081     2     9     6    10
 0.2988015979     2     9     7     1
 0.0001249957     2     9     7     2
 -0.0180834745     2     9     7     3
 -0.0000037581     2     9     7     4
 -0.0002676395     2     9     7     5
 -0.0000007542     2     9     7    10
 -0.0000000348     2     9     9     1
 -0.5359703085     2     9     9     2
 0.0000037212     2     9     9     3
 0.0185835057     2     9     9     4
 -0.0000004191     2     9     9     5
 0.0014635581     2     9     9    10
 0.0000000089     2     9    10     6
 0.0000000217     2     9    10     7
 0.0025494739     2    10     1     1
 0.0000005331     2    10     1     2
 0.0000099419     2    10     1     3
 0.0000704613     2    10     1     5
 -0.0307378465     2    10     3     1
 -0.0000128505     2    10     3     2
 0.0018732097     2    10     3     3
 -0.0000002209     2    10     3     4
 0.0017806542     2    10     3     5
 -0.0000000105     2    10     4     1
 -0.0276348383     2    10     4     2
 -0.0000005397     2    10     4     3
 -0.0002753971     2    10     4     4
 0.0000000919     2    10     4     5
 -0.3110933156     2    10     5     1
 -0.0001301473     2    10     5     2
 0.0198919315     2    10     5     3
 0.0000040633     2    10     5     4
 -0.0001627470     2    10     5     5
 -0.0011797227     2    10     6     6
 -0.0000007542     2    10     6     8
 0.0000003081     2    10     6     9
 -0.0011797226     2    10     7     7
 0.0000003081     2    10     7     8
 0.0000007542     2    10     7     9
 -0.0000007245     2    10     8     6
 0.0000002959     2    10     8     7
 -0.0014635581     2    10     8     8
 0.0000002959     2    10     9     6
 0.0000007245     2    10     9     7
 -0.0014635581     2    10     9     9
 -0.0000000339     2    10    10     1
 -0.5593090236     2    10    10     2
 0.0000039231     2    10    10     3
 0.0200810042     2    10    10     4
 -0.0000011619     2    10    10     5
 -0.0000000304     3     1     1     2
 -0.5540053773     3     1     1     3
 0.0001481080     3     1     1     4
 -0.0083114092     3     1     1     5
 0.0000128690     3     1     1    10
 0.0001450339     3     1     2     2
 0.0000002483     3     1     2     3
 -0.3540604806     3     1     2     4
 -0.0000000192     3     1     2     5
 -0.0307378465     3     1     2    10
 -0.0000116763     3     1     4     2
 -0.0000000347     3     1     4     3
 -0.0003578780     3     1     4     4
 -0.0000003426     3     1     4     5
 0.0014662051     3     1     4    10
 -0.0018428954     3     1     5     3
 -0.0000005768     3     1     5     4
 -0.0204121914     3     1     5     5
 0.0000036343     3     1     5    10
 -0.0212051933     3     1     6     6
 0.0000034961     3     1     6     8
 -0.0000014282     3     1     6     9
 -0.0212051932     3     1     7     7
 -0.0000014282     3     1     7     8
 -0.0000034960     3     1     7     9
 0.0000037888     3     1     8     6
 -0.0000015477     3     1     8     7
 -0.0178165752     3     1     8     8
 -0.0000015477     3     1     9     6
 -0.0000037888     3     1     9     7
 -0.0178165752     3     1     9     9
 0.0000099419     3     1    10     2
 0.0000003904     3     1    10     3
 0.0025841418     3     1    10     4
 0.0000041675     3     1    10     5
 -0.0187861971     3     1    10    10
 0.0000000304     3     2     1     1
 0.0000002483     3     2     1     3
 -0.3540486030     3     2     1     4
 -0.0000000191     3     2     1     5
 -0.0307478487     3     2     1    10
 -0.0001450339     3     2     2     1
 -0.5539934248     3     2     2     3
 -0.0001480949     3     2     2     4
 -0.0083082188     3     2     2     5
 -0.0000128505     3     2     2    10
 0.0000116763     3     2     4     1
 0.0001666689     3     2     4     3
 -0.0000000748     3     2     4     4
 0.0016381810     3     2     4     5
 0.0000003067     3     2     4    10
 -0.0000003868     3     2     5     3
 0.0027540451     3     2     5     4
 -0.0000042604     3     2     5     5
 -0.0173441785     3     2     5    10
 -0.0000044246     3     2     6     6
 -0.0166850325     3     2     6     8
 0.0068158583     3     2     6     9
 -0.0000044246     3     2     7     7
 0.0068158583     3     2     7     8
 0.0166850325     3     2     7     9
 -0.0180834745     3     2     8     6
 0.0073871238     3     2     8     7
 -0.0000037212     3     2     8     8
 0.0073871238     3     2     9     6
 0.0180834745     3     2     9     7
 -0.0000037212     3     2     9     9
 -0.0000099419     3     2    10     1
 -0.0018732097     3     2    10     3
 0.0000005397     3     2    10     4
 -0.0198919315     3     2    10     5
 -0.0000039231     3     2    10    10
 0.5540053773     3     3     1     1
 -0.0000002483     3     3     1     2
 0.0000000347     3     3     1     4
 0.0018428954     3     3     1     5
 -0.0000003904     3     3     1    10
 -0.0000002483     3     3     2     1
 0.5539934248     3     3     2     2
 -0.0001666689     3     3     2     4
 0.0000003868     3     3     2     5
 0.0018732097     3     3     2    10
 0.0000000347     3     3     4     1
 -0.0001666689     3     3     4     2
 0.2004806636     3     3     4     4
 0.0000000165     3     3     4     5
 0.0122417719     3     3     4    10
 0.0018428954     3     3     5     1
 0.0000003868     3     3     5     2
 0.0000000165     3     3     5     4
 0.3604874505     3     3     5     5
 -0.0000001039     3     3     5    10
 0.3625213269     3     3     6     6
 -0.0000001011     3     3     6     8
 0.0000000413     3     3     6     9
 0.3625213268     3     3     7     7
 0.0000000413     3     3     7     8
 0.0000001011     3     3     7     9
 -0.0000001011     3     3     8     6
 0.0000000413     3     3     8     7
 0.3637440958     3     3     8     8
 0.0000000413     3     3     9     6
 0.0000001011     3     3     9     7
 0.3637440958     3     3     9     9
 -0.0000003904     3     3    10     1
 0.0018732097     3     3    10     2
 0.0122417719     3     3    10     4
 -0.0000001039     3     3    10     5
 0.3773072416     3     3    10    10
 -0.0001481080     3     4     1     1
 0.3540486030     3     4     1     2
 -0.0000000347     3     4     1     3
 0.0000002311     3     4     1     5
 -0.0010601994     3     4     1    10
 0.3540604806     3     4     2     1
 0.0001480949     3     4     2     2
 0.0001666689     3     4     2     3