&FCI NORB= 10,NELEC= 14,MS2=0,
 ORBSYM=1,1,1,1,1,1,1,1,1,1
 ISYM=1,
&END
 0.2405266689     1     1     2     2
 0.0000000098     1     1     2     3
 0.0004428880     1     1     2     4
 -0.0000001126     1     1     2     5
 -0.0036767279     1     1     2    10
 0.0000000098     1     1     3     2
 0.5726877804     1     1     3     3
 0.0000192138     1     1     3     4
 -0.0128133786     1     1     3     5
 0.0000031412     1     1     3    10
 0.0004428880     1     1     4     2
 0.0000192138     1     1     4     3
 0.5796350385     1     1     4     4
 0.0000053285     1     1     4     5
 0.0387705249     1     1     4    10
 -0.0000001126     1     1     5     2
 -0.0128133786     1     1     5     3
 0.0000053285     1     1     5     4
 0.5711863607     1     1     5     5
 -0.0000163273     1     1     5    10
 0.5691442980     1     1     6     6
 -0.0000000003     1     1     6     7
 0.0000173872     1     1     6     8
 0.0000004885     1     1     6     9
 -0.0000000003     1     1     7     6
 0.5691443002     1     1     7     7
 -0.0000004885     1     1     7     8
 0.0000173872     1     1     7     9
 0.0000173872     1     1     8     6
 -0.0000004885     1     1     8     7
 0.5542481979     1     1     8     8
 0.0000004885     1     1     9     6
 0.0000173872     1     1     9     7
 0.5542481977     1     1     9     9
 -0.0036767279     1     1    10     2
 0.0000031412     1     1    10     3
 0.0387705249     1     1    10     4
 -0.0000163273     1     1    10     5
 0.5864985109     1     1    10    10
 -0.2405266689     1     2     2     1
 0.0003406715     1     2     2     3
 -0.0000000128     1     2     2     4
 -0.0039007069     1     2     2     5
 0.0000001061     1     2     2    10
 -0.0000000098     1     2     3     1
 0.0000000242     1     2     3     3
 0.3327121935     1     2     3     4
 0.0000000025     1     2     3     5
 0.0543827618     1     2     3    10
 -0.0004428880     1     2     4     1
 0.3327236959     1     2     4     3
 -0.0000000232     1     2     4     4
 0.0922567452     1     2     4     5
 -0.0000000018     1     2     4    10
 0.0000001126     1     2     5     1
 0.0000000025     1     2     5     3
 0.0922762572     1     2     5     4
 0.0000000076     1     2     5     5
 -0.2827958626     1     2     5    10
 0.0000000078     1     2     6     6
 0.3011280557     1     2     6     8
 0.0084597208     1     2     6     9
 0.0000000078     1     2     7     7
 -0.0084597211     1     2     7     8
 0.3011280567     1     2     7     9
 0.3010709965     1     2     8     6
 -0.0084581181     1     2     8     7
 -0.0000000056     1     2     8     8
 0.0084581177     1     2     9     6
 0.3010709976     1     2     9     7
 -0.0000000056     1     2     9     9
 0.0036767279     1     2    10     1
 0.0543664428     1     2    10     3
 -0.0000000018     1     2    10     4
 -0.2826788414     1     2    10     5
 -0.0000000058     1     2    10    10
 -0.0000000098     1     3     2     1
 -0.0003406715     1     3     2     2
 -0.0000111967     1     3     2     4
 0.0000162981     1     3     2    10
 -0.5726877804     1     3     3     1
 -0.0000000242     1     3     3     2
 -0.0000000093     1     3     3     4
 -0.0032664513     1     3     3     5
 0.0000000975     1     3     3    10
 -0.0000192138     1     3     4     1
 -0.3327236959     1     3     4     2
 0.0006426658     1     3     4     4
 0.0000001171     1     3     4     5
 -0.0038669142     1     3     4    10
 0.0128133786     1     3     5     1
 -0.0000000025     1     3     5     2
 0.0000000928     1     3     5     4
 0.0201053335     1     3     5     5
 -0.0000005751     1     3     5    10
 0.0204122656     1     3     6     6
 0.0000005550     1     3     6     8
 0.0000000156     1     3     6     9
 0.0204122658     1     3     7     7
 -0.0000000156     1     3     7     8
 0.0000005550     1     3     7     9
 0.0000004992     1     3     8     6
 -0.0000000140     1     3     8     7
 0.0177995242     1     3     8     8
 0.0000000140     1     3     9     6
 0.0000004992     1     3     9     7
 0.0177995242     1     3     9     9
 -0.0000031412     1     3    10     1
 -0.0543664428     1     3    10     2
 -0.0025999963     1     3    10     4
 -0.0000004733     1     3    10     5
 0.0186853041     1     3    10    10
 -0.0004428880     1     4     2     1
 0.0000000128     1     4     2     2
 0.0000111967     1     4     2     3
 -0.0000188788     1     4     2     5
 -0.0000192138     1     4     3     1
 -0.3327121935     1     4     3     2
 0.0000000093     1     4     3     3
 0.0000000233     1     4     3     5
 -0.0010973617     1     4     3    10
 -0.5796350385     1     4     4     1
 0.0000000232     1     4     4     2
 -0.0006426658     1     4     4     3
 0.0007884821     1     4     4     5
 -0.0000000260     1     4     4    10
 -0.0000053285     1     4     5     1
 -0.0922762572     1     4     5     2
 -0.0000000928     1     4     5     3
 0.0000005634     1     4     5     5
 -0.0192806605     1     4     5    10
 0.0000005989     1     4     6     6
 0.0187903253     1     4     6     8
 0.0005278848     1     4     6     9
 0.0000005989     1     4     7     7
 -0.0005278847     1     4     7     8
 0.0187903249     1     4     7     9
 0.0179480507     1     4     8     6
 -0.0005042224     1     4     8     7
 0.0000005512     1     4     8     8
 0.0005042223     1     4     9     6
 0.0179480506     1     4     9     7
 0.0000005512     1     4     9     9
 -0.0387705249     1     4    10     1
 0.0000000018     1     4    10     2
 0.0025999963     1     4    10     3
 -0.0171766559     1     4    10     5
 0.0000006083     1     4    10    10
 0.0000001126     1     5     2     1
 0.0039007069     1     5     2     2
 0.0000188788     1     5     2     4
 -0.0001182075     1     5     2    10
 0.0128133786     1     5     3     1
 -0.0000000025     1     5     3     2
 0.0032664513     1     5     3     3
 -0.0000000233     1     5     3     4
 -0.0000000755     1     5     3    10
 -0.0000053285     1     5     4     1
 -0.0922567452     1     5     4     2
 -0.0000001171     1     5     4     3
 -0.0007884821     1     5     4     4
 -0.0009421912     1     5     4    10
 -0.5711863607     1     5     5     1
 -0.0000000076     1     5     5     2
 -0.0201053335     1     5     5     3
 -0.0000005634     1     5     5     4
 -0.0000000276     1     5     5    10
 0.0040120537     1     5     6     6
 0.0000000025     1     5     6     8
 0.0000000001     1     5     6     9
 0.0040120537     1     5     7     7
 -0.0000000001     1     5     7     8
 0.0000000025     1     5     7     9
 0.0000000075     1     5     8     6
 -0.0000000002     1     5     8     7
 0.0033453230     1     5     8     8
 0.0000000002     1     5     9     6
 0.0000000075     1     5     9     7
 0.0033453229     1     5     9     9
 0.0000163273     1     5    10     1
 0.2826788414     1     5    10     2
 0.0000004733     1     5    10     3
 0.0171766559     1     5    10     4
 0.0085222289     1     5    10    10
 0.0000570947     1     6     2     8
 0.0000016040     1     6     2     9
 0.0000000341     1     6     3     8
 0.0000000010     1     6     3     9
 -0.0000517456     1     6     4     8
 -0.0000014537     1     6     4     9
 -0.0000000124     1     6     5     8
 -0.0000000003     1     6     5     9
 -0.5691442980     1     6     6     1
 -0.0000000078     1     6     6     2
 -0.0204122656     1     6     6     3
 -0.0000005989     1     6     6     4
 -0.0040120537     1     6     6     5
 -0.0000000556     1     6     6    10
 0.0000000003     1     6     7     1
 -0.0000173872     1     6     8     1
 -0.3010709965     1     6     8     2
 -0.0000004992     1     6     8     3
 -0.0179480507     1     6     8     4
 -0.0000000075     1     6     8     5
 -0.0055810869     1     6     8    10
 -0.0000004885     1     6     9     1
 -0.0084581177     1     6     9     2
 -0.0000000140     1     6     9     3
 -0.0005042223     1     6     9     4
 -0.0000000002     1     6     9     5
 -0.0001567919     1     6     9    10
 -0.0001248192     1     6    10     8
 -0.0000035066     1     6    10     9
 -0.0000016040     1     7     2     8
 0.0000570947     1     7     2     9
 -0.0000000010     1     7     3     8
 0.0000000341     1     7     3     9
 0.0000014537     1     7     4     8
 -0.0000517456     1     7     4     9
 0.0000000003     1     7     5     8
 -0.0000000124     1     7     5     9
 0.0000000003     1     7     6     1
 -0.5691443002     1     7     7     1
 -0.0000000078     1     7     7     2
 -0.0204122658     1     7     7     3
 -0.0000005989     1     7     7     4
 -0.0040120537     1     7     7     5
 -0.0000000556     1     7     7    10
 0.0000004885     1     7     8     1
 0.0084581181     1     7     8     2
 0.0000000140     1     7     8     3
 0.0005042224     1     7     8     4
 0.0000000002     1     7     8     5
 0.0001567919     1     7     8    10
 -0.0000173872     1     7     9     1
 -0.3010709976     1     7     9     2
 -0.0000004992     1     7     9     3
 -0.0179480506     1     7     9     4
 -0.0000000075     1     7     9     5
 -0.0055810868     1     7     9    10
 0.0000035066     1     7    10     8
 -0.0001248192     1     7    10     9
 -0.0000570947     1     8     2     6
 0.0000016040     1     8     2     7
 -0.0000000341     1     8     3     6
 0.0000000010     1     8     3     7
 0.0000517456     1     8     4     6
 -0.0000014537     1     8     4     7
 0.0000000124     1     8     5     6
 -0.0000000003     1     8     5     7
 -0.0000173872     1     8     6     1
 -0.3011280557     1     8     6     2
 -0.0000005550     1     8     6     3
 -0.0187903253     1     8     6     4
 -0.0000000025     1     8     6     5
 -0.0057855433     1     8     6    10
 0.0000004885     1     8     7     1
 0.0084597211     1     8     7     2
 0.0000000156     1     8     7     3
 0.0005278847     1     8     7     4
 0.0000000001     1     8     7     5
 0.0001625357     1     8     7    10
 -0.5542481979     1     8     8     1
 0.0000000056     1     8     8     2
 -0.0177995242     1     8     8     3
 -0.0000005512     1     8     8     4
 -0.0033453230     1     8     8     5
 -0.0000000795     1     8     8    10
 0.0001248192     1     8    10     6
 -0.0000035066     1     8    10     7
 -0.0000016040     1     9     2     6
 -0.0000570947     1     9     2     7
 -0.0000000010     1     9     3     6
 -0.0000000341     1     9     3     7
 0.0000014537     1     9     4     6
 0.0000517456     1     9     4     7
 0.0000000003     1     9     5     6
 0.0000000124     1     9     5     7
 -0.0000004885     1     9     6     1
 -0.0084597208     1     9     6     2
 -0.0000000156     1     9     6     3
 -0.0005278848     1     9     6     4
 -0.0000000001     1     9     6     5
 -0.0001625358     1     9     6    10
 -0.0000173872     1     9     7     1
 -0.3011280567     1     9     7     2
 -0.0000005550     1     9     7     3
 -0.0187903249     1     9     7     4
 -0.0000000025     1     9     7     5
 -0.0057855432     1     9     7    10
 -0.5542481977     1     9     9     1
 0.0000000056     1     9     9     2
 -0.0177995242     1     9     9     3
 -0.0000005512     1     9     9     4
 -0.0033453229     1     9     9     5
 -0.0000000795     1     9     9    10
 0.0000035066     1     9    10     6
 0.0001248192     1     9    10     7
 0.0036767279     1    10     2     1
 -0.0000001061     1    10     2     2
 -0.0000162981     1    10     2     3
 0.0001182075     1    10     2     5
 -0.0000031412     1    10     3     1
 -0.0543827618     1    10     3     2
 -0.0000000975     1    10     3     3
 0.0010973617     1    10     3     4
 0.0000000755     1    10     3     5
 -0.0387705249     1    10     4     1
 0.0000000018     1    10     4     2
 0.0038669142     1    10     4     3
 0.0000000260     1    10     4     4
 0.0009421912     1    10     4     5
 0.0000163273     1    10     5     1
 0.2827958626     1    10     5     2
 0.0000005751     1    10     5     3
 0.0192806605     1    10     5     4
 0.0000000276     1    10     5     5
 0.0000000556     1    10     6     6
 0.0057855433     1    10     6     8
 0.0001625358     1    10     6     9
 0.0000000556     1    10     7     7
 -0.0001625357     1    10     7     8
 0.0057855432     1    10     7     9
 0.0055810869     1    10     8     6
 -0.0001567919     1    10     8     7
 0.0000000795     1    10     8     8
 0.0001567919     1    10     9     6
 0.0055810868     1    10     9     7
 0.0000000795     1    10     9     9
 -0.5864985109     1    10    10     1
 0.0000000058     1    10    10     2
 -0.0186853041     1    10    10     3
 -0.0000006083     1    10    10     4
 -0.0085222289     1    10    10     5
 -0.2405266689     2     1     1     2
 -0.0000000098     2     1     1     3
 -0.0004428880     2     1     1     4
 0.0000001126     2     1     1     5
 0.0036767279     2     1     1    10
 0.0003406715     2     1     3     2
 0.0000000242     2     1     3     3
 0.3327236959     2     1     3     4
 0.0000000025     2     1     3     5
 0.0543664428     2     1     3    10
 -0.0000000128     2     1     4     2
 0.3327121935     2     1     4     3
 -0.0000000232     2     1     4     4
 0.0922762572     2     1     4     5
 -0.0000000018     2     1     4    10
 -0.0039007069     2     1     5     2
 0.0000000025     2     1     5     3
 0.0922567452     2     1     5     4
 0.0000000076     2     1     5     5
 -0.2826788414     2     1     5    10
 0.0000000078     2     1     6     6
 0.3010709965     2     1     6     8
 0.0084581177     2     1     6     9
 0.0000000078     2     1     7     7
 -0.0084581181     2     1     7     8
 0.3010709976     2     1     7     9
 0.3011280557     2     1     8     6
 -0.0084597211     2     1     8     7
 -0.0000000056     2     1     8     8
 0.0084597208     2     1     9     6
 0.3011280567     2     1     9     7
 -0.0000000056     2     1     9     9
 0.0000001061     2     1    10     2
 0.0543827618     2     1    10     3
 -0.0000000018     2     1    10     4
 -0.2827958626     2     1    10     5
 -0.0000000058     2     1    10    10
 0.2405266689     2     2     1     1
 -0.0003406715     2     2     1     3
 0.0000000128     2     2     1     4
 0.0039007069     2     2     1     5
 -0.0000001061     2     2     1    10
 -0.0003406715     2     2     3     1
 0.5726757198     2     2     3     3
 -0.0000192123     2     2     3     4
 -0.0128128582     2     2     3     5
 -0.0000031387     2     2     3    10
 0.0000000128     2     2     4     1
 -0.0000192123     2     2     4     3
 0.5796436531     2     2     4     4
 -0.0000053275     2     2     4     5
 0.0387726215     2     2     4    10
 0.0039007069     2     2     5     1
 -0.0128128582     2     2     5     3
 -0.0000053275     2     2     5     4
 0.5713102400     2     2     5     5
 0.0000163266     2     2     5    10
 0.5692108264     2     2     6     6
 -0.0000000003     2     2     6     7
 -0.0000173873     2     2     6     8
 -0.0000004885     2     2     6     9
 -0.0000000003     2     2     7     6
 0.5692108286     2     2     7     7
 0.0000004885     2     2     7     8
 -0.0000173873     2     2     7     9
 -0.0000173873     2     2     8     6
 0.0000004885     2     2     8     7
 0.5542037333     2     2     8     8
 -0.0000004885     2     2     9     6
 -0.0000173873     2     2     9     7
 0.5542037331     2     2     9     9
 -0.0000001061     2     2    10     1
 -0.0000031387     2     2    10     3
 0.0387726215     2     2    10     4
 0.0000163266     2     2    10     5
 0.5863826820     2     2    10    10
 0.0000000098     2     3     1     1
 0.0003406715     2     3     1     2
 0.0000111967     2     3     1     4
 -0.0000162981     2     3     1    10
 -0.0000000242     2     3     3     1
 -0.5726757198     2     3     3     2
 -0.0003220136     2     3     3     4
 0.0000000945     2     3     3     5
 0.0033816792     2     3     3    10
 -0.3327121935     2     3     4     1
 0.0000192123     2     3     4     2
 -0.0000000186     2     3     4     4
 0.0040467388     2     3     4     5
 0.0000001114     2     3     4    10
 -0.0000000025     2     3     5     1
 0.0128128582     2     3     5     2
 0.0032125569     2     3     5     4
 -0.0000005794     2     3     5     5
 -0.0198915208     2     3     5    10
 -0.0000005884     2     3     6     6
 0.0192002281     2     3     6     8
 0.0005394004     2     3     6     9
 -0.0000005884     2     3     7     7
 -0.0005394002     2     3     7     8
 0.0192002278     2     3     7     9
 0.0172689107     2     3     8     6
 -0.0004851430     2     3     8     7
 -0.0000005136     2     3     8     8
 0.0004851430     2     3     9     6
 0.0172689105     2     3     9     7
 -0.0000005136     2     3     9     9
 -0.0543827618     2     3    10     1
 0.0000031387     2     3    10     2
 0.0000000751     2     3    10     4
 -0.0163643854     2     3    10     5
 -0.0000005388     2     3    10    10
 0.0004428880     2     4     1     1
 -0.0000000128     2     4     1     2
 -0.0000111967     2     4     1     3
 0.0000188788     2     4     1     5
 -0.3327236959     2     4     3     1
 0.0000192123     2     4     3     2
 0.0003220136     2     4     3     3
 0.0008019007     2     4     3     5
 0.0000000315     2     4     3    10
 0.0000000232     2     4     4     1
 -0.5796436531     2     4     4     2
 0.0000000186     2     4     4     3
 -0.0000000229     2     4     4     5
 -0.0009037024     2     4     4    10
 -0.0922567452     2     4     5     1
 0.0000053275     2     4     5     2
 -0.0032125569     2     4     5     3
 0.0195268349     2     4     5     5
 0.0000005573     2     4     5    10
 0.0207560778     2     4     6     6
 -0.0000005432     2     4     6     8
 -0.0000000153     2     4     6     9
 0.0207560779     2     4     7     7
 0.0000000153     2     4     7     8
 -0.0000005432     2     4     7     9
 -0.0000005189     2     4     8     6
 0.0000000146     2     4     8     7
 0.0191252055     2     4     8     8
 -0.0000000146     2     4     9     6
 -0.0000005189     2     4     9     7
 0.0191252054     2     4     9     9
 0.0000000018     2     4    10     1
 -0.0387726215     2     4    10     2
 -0.0000000751     2     4    10     3
 0.0000004963     2     4    10     5
 0.0210946058     2     4    10    10
 -0.0000001126     2     5     1     1
 -0.0039007069     2     5     1     2
 -0.0000188788     2     5     1     4
 0.0001182075     2     5     1    10
 -0.0000000025     2     5     3     1
 0.0128128582     2     5     3     2
 -0.0000000945     2     5     3     3
 -0.0008019007     2     5     3     4
 -0.0026107718     2     5     3    10
 -0.0922762572     2     5     4     1
 0.0000053275     2     5     4     2
 -0.0040467388     2     5     4     3
 0.0000000229     2     5     4     4
 0.0000000273     2     5     4    10
 -0.0000000076     2     5     5     1
 -0.5713102400     2     5     5     2
 0.0000005794     2     5     5     3
 -0.0195268349     2     5     5     4
 -0.0009537321     2     5     5    10
 -0.0000001159     2     5     6     6
 0.0000893783     2     5     6     8
 0.0000025110     2     5     6     9
 -0.0000001159     2     5     7     7
 -0.0000025110     2     5     7     8
 0.0000893784     2     5     7     9
 0.0002640659     2     5     8     6
 -0.0000074186     2     5     8     7
 -0.0000000966     2     5     8     8
 0.0000074186     2     5     9     6
 0.0002640659     2     5     9     7
 -0.0000000966     2     5     9     9
 0.2827958626     2     5    10     1
 -0.0000163266     2     5    10     2
 0.0163643854     2     5    10     3
 -0.0000004963     2     5    10     4
 -0.0000002461     2     5    10    10
 -0.0000570947     2     6     1     8
 -0.0000016040     2     6     1     9
 0.0011782531     2     6     3     8
 0.0000331011     2     6     3     9
 0.0000000015     2     6     4     8
 -0.0004303412     2     6     5     8
 -0.0000120898     2     6     5     9
 -0.0000000078     2     6     6     1
 -0.5692108264     2     6     6     2
 0.0000005884     2     6     6     3
 -0.0207560778     2     6     6     4
 0.0000001159     2     6     6     5
 -0.0019226253     2     6     6    10
 0.0000000003     2     6     7     2
 -0.3011280557     2     6     8     1
 0.0000173873     2     6     8     2
 -0.0172689107     2     6     8     3
 0.0000005189     2     6     8     4
 -0.0002640659     2     6     8     5
 0.0000001611     2     6     8    10
 -0.0084597208     2     6     9     1
 0.0000004885     2     6     9     2
 -0.0004851430     2     6     9     3
 0.0000000146     2     6     9     4
 -0.0000074186     2     6     9     5
 0.0000000045     2     6     9    10
 0.0000000036     2     6    10     8
 0.0000000001     2     6    10     9
 0.0000016040     2     7     1     8
 -0.0000570947     2     7     1     9
 -0.0000331011     2     7     3     8
 0.0011782531     2     7     3     9
 0.0000000015     2     7     4     9
 0.0000120898     2     7     5     8
 -0.0004303412     2     7     5     9
 0.0000000003     2     7     6     2
 -0.0000000078     2     7     7     1
 -0.5692108286     2     7     7     2
 0.0000005884     2     7     7     3
 -0.0207560779     2     7     7     4
 0.0000001159     2     7     7     5
 -0.0019226253     2     7     7    10
 0.0084597211     2     7     8     1
 -0.0000004885     2     7     8     2
 0.0004851430     2     7     8     3
 -0.0000000146     2     7     8     4
 0.0000074186     2     7     8     5
 -0.0000000045     2     7     8    10
 -0.3011280567     2     7     9     1
 0.0000173873     2     7     9     2
 -0.0172689105     2     7     9     3
 0.0000005189     2     7     9     4
 -0.0002640659     2     7     9     5
 0.0000001611     2     7     9    10
 -0.0000000001     2     7    10     8
 0.0000000036     2     7    10     9
 0.0000570947     2     8     1     6
 -0.0000016040     2     8     1     7
 -0.0011782531     2     8     3     6
 0.0000331011     2     8     3     7
 -0.0000000015     2     8     4     6
 0.0004303412     2     8     5     6
 -0.0000120898     2     8     5     7
 -0.3010709965     2     8     6     1
 0.0000173873     2     8     6     2
 -0.0192002281     2     8     6     3
 0.0000005432     2     8     6     4
 -0.0000893783     2     8     6     5
 0.0000001670     2     8     6    10
 0.0084581181     2     8     7     1
 -0.0000004885     2     8     7     2
 0.0005394002     2     8     7     3
 -0.0000000153     2     8     7     4
 0.0000025110     2     8     7     5
 -0.0000000047     2     8     7    10
 0.0000000056     2     8     8     1
 -0.5542037333     2     8     8     2
 0.0000005136     2     8     8     3
 -0.0191252055     2     8     8     4
 0.0000000966     2     8     8     5
 -0.0027569762     2     8     8    10
 -0.0000000036     2     8    10     6
 0.0000000001     2     8    10     7
 0.0000016040     2     9     1     6
 0.0000570947     2     9     1     7
 -0.0000331011     2     9     3     6
 -0.0011782531     2     9     3     7
 -0.0000000015     2     9     4     7
 0.0000120898     2     9     5     6
 0.0004303412     2     9     5     7
 -0.0084581177     2     9     6     1
 0.0000004885     2     9     6     2
 -0.0005394004     2     9     6     3
 0.0000000153     2     9     6     4
 -0.0000025110     2     9     6     5
 0.0000000047     2     9     6    10
 -0.3010709976     2     9     7     1
 0.0000173873     2     9     7     2
 -0.0192002278     2     9     7     3
 0.0000005432     2     9     7     4
 -0.0000893784     2     9     7     5
 0.0000001670     2     9     7    10
 0.0000000056     2     9     9     1
 -0.5542037331     2     9     9     2
 0.0000005136     2     9     9     3
 -0.0191252054     2     9     9     4
 0.0000000966     2     9     9     5
 -0.0027569762     2     9     9    10
 -0.0000000001     2     9    10     6
 -0.0000000036     2     9    10     7
 -0.0036767279     2    10     1     1
 0.0000001061     2    10     1     2
 0.0000162981     2    10     1     3
 -0.0001182075     2    10     1     5
 -0.0543664428     2    10     3     1
 0.0000031387     2    10     3     2
 -0.0033816792     2    10     3     3
 -0.0000000315     2    10     3     4
 0.0026107718     2    10     3     5
 0.0000000018     2    10     4     1
 -0.0387726215     2    10     4     2
 -0.0000001114     2    10     4     3
 0.0009037024     2    10     4     4
 -0.0000000273     2    10     4     5
 0.2826788414     2    10     5     1
 -0.0000163266     2    10     5     2
 0.0198915208     2    10     5     3
 -0.0000005573     2    10     5     4
 0.0009537321     2    10     5     5
 0.0019226253     2    10     6     6
 -0.0000001670     2    10     6     8
 -0.0000000047     2    10     6     9
 0.0019226253     2    10     7     7
 0.0000000047     2    10     7     8
 -0.0000001670     2    10     7     9
 -0.0000001611     2    10     8     6
 0.0000000045     2    10     8     7
 0.0027569762     2    10     8     8
 -0.0000000045     2    10     9     6
 -0.0000001611     2    10     9     7
 0.0027569762     2    10     9     9
 0.0000000058     2    10    10     1
 -0.5863826820     2    10    10     2
 0.0000005388     2    10    10     3
 -0.0210946058     2    10    10     4
 0.0000002461     2    10    10     5
 -0.0000000098     3     1     1     2
 -0.5726877804     3     1     1     3
 -0.0000192138     3     1     1     4
 0.0128133786     3     1     1     5
 -0.0000031412     3     1     1    10
 -0.0003406715     3     1     2     2
 -0.0000000242     3     1     2     3
 -0.3327236959     3     1     2     4
 -0.0000000025     3     1     2     5
 -0.0543664428     3     1     2    10
 -0.0000111967     3     1     4     2
 -0.0000000093     3     1     4     3
 0.0006426658     3     1     4     4
 0.0000000928     3     1     4     5
 -0.0025999963     3     1     4    10
 -0.0032664513     3     1     5     3
 0.0000001171     3     1     5     4
 0.0201053335     3     1     5     5
 -0.0000004733     3     1     5    10
 0.0204122656     3     1     6     6
 0.0000004992     3     1     6     8
 0.0000000140     3     1     6     9
 0.0204122658     3     1     7     7
 -0.0000000140     3     1     7     8
 0.0000004992     3     1     7     9
 0.0000005550     3     1     8     6
 -0.0000000156     3     1     8     7
 0.0177995242     3     1     8     8
 0.0000000156     3     1     9     6
 0.0000005550     3     1     9     7
 0.0177995242     3     1     9     9
 0.0000162981     3     1    10     2
 0.0000000975     3     1    10     3
 -0.0038669142     3     1    10     4
 -0.0000005751     3     1    10     5
 0.0186853041     3     1    10    10
 0.0000000098     3     2     1     1
 -0.0000000242     3     2     1     3
 -0.3327121935     3     2     1     4
 -0.0000000025     3     2     1     5
 -0.0543827618     3     2     1    10
 0.0003406715     3     2     2     1
 -0.5726757198     3     2     2     3
 0.0000192123     3     2     2     4
 0.0128128582     3     2     2     5
 0.0000031387     3     2     2    10
 0.0000111967     3     2     4     1
 -0.0003220136     3     2     4     3
 -0.0000000186     3     2     4     4
 0.0032125569     3     2     4     5
 0.0000000751     3     2     4    10
 0.0000000945     3     2     5     3
 0.0040467388     3     2     5     4
 -0.0000005794     3     2     5     5
 -0.0163643854     3     2     5    10
 -0.0000005884     3     2     6     6
 0.0172689107     3     2     6     8
 0.0004851430     3     2     6     9
 -0.0000005884     3     2     7     7
 -0.0004851430     3     2     7     8
 0.0172689105     3     2     7     9
 0.0192002281     3     2     8     6
 -0.0005394002     3     2     8     7
 -0.0000005136     3     2     8     8
 0.0005394004     3     2     9     6
 0.0192002278     3     2     9     7
 -0.0000005136     3     2     9     9
 -0.0000162981     3     2    10     1
 0.0033816792     3     2    10     3
 0.0000001114     3     2    10     4
 -0.0198915208     3     2    10     5
 -0.0000005388     3     2    10    10
 0.5726877804     3     3     1     1
 0.0000000242     3     3     1     2
 0.0000000093     3     3     1     4
 0.0032664513     3     3     1     5
 -0.0000000975     3     3     1    10
 0.0000000242     3     3     2     1
 0.5726757198     3     3     2     2
 0.0003220136     3     3     2     4
 -0.0000000945     3     3     2     5
 -0.0033816792     3     3     2    10
 0.0000000093     3     3     4     1
 0.0003220136     3     3     4     2
 0.2385668646     3     3     4     4
 0.0000000028     3     3     4     5
 0.0119141980     3     3     4    10
 0.0032664513     3     3     5     1
 -0.0000000945     3     3     5     2
 0.0000000028     3     3     5     4
 0.3773166196     3     3     5     5
 -0.0000000097     3     3     5    10
 0.3777556527     3     3     6     6
 -0.0000000002     3     3     6     7
 0.0000000107     3     3     6     8
 0.0000000003     3     3     6     9
 -0.0000000002     3     3     7     6
 0.3777556540     3     3     7     7
 -0.0000000003     3     3     7     8
 0.0000000107     3     3     7     9
 0.0000000107     3     3     8     6
 -0.0000000003     3     3     8     7
 0.3834954604     3     3     8     8
 0.0000000001     3     3     8     9
 0.0000000003     3     3     9     6
 0.0000000107     3     3     9     7
 0.0000000001     3     3     9     8
 0.3834954602     3     3     9     9
 -0.0000000975     3     3    10     1
 -0.0033816792     3     3    10     2
 0.0119141980     3     3    10     4
 -0.0000000097     3     3    10     5
 0.4008121038     3     3    10    10