&FCI NORB= 10,NELEC= 14,MS2=0,
 ORBSYM=1,1,1,1,1,1,1,1,1,1
 ISYM=1,
&END
 0.1824494543     1     1     2     2
 0.0000000899     1     1     2     3
 -0.0001004794     1     1     2     4
 0.0000021941     1     1     2     5
 -0.0020164673     1     1     2    10
 0.0000000899     1     1     3     2
 0.5442630660     1     1     3     3
 -0.0006926951     1     1     3     4
 0.0072685168     1     1     3     5
 0.0000393351     1     1     3    10
 -0.0001004794     1     1     4     2
 -0.0006926951     1     1     4     3
 0.5494633520     1     1     4     4
 0.0000781834     1     1     4     5
 -0.0212684345     1     1     4    10
 0.0000021941     1     1     5     2
 0.0072685168     1     1     5     3
 0.0000781834     1     1     5     4
 0.5451670414     1     1     5     5
 0.0006209504     1     1     5    10
 0.5504766501     1     1     6     6
 0.0000381627     1     1     6     8
 0.0006321890     1     1     6     9
 0.5504766502     1     1     7     7
 0.0006321890     1     1     7     8
 -0.0000381627     1     1     7     9
 0.0000381627     1     1     8     6
 0.0006321890     1     1     8     7
 0.5245615928     1     1     8     8
 0.0006321890     1     1     9     6
 -0.0000381627     1     1     9     7
 0.5245615928     1     1     9     9
 -0.0020164673     1     1    10     2
 0.0000393351     1     1    10     3
 -0.0212684345     1     1    10     4
 0.0006209504     1     1    10     5
 0.5424618413     1     1    10    10
 -0.1824494543     1     2     2     1
 -0.0000946012     1     2     2     3
 -0.0000000954     1     2     2     4
 -0.0023126823     1     2     2     5
 -0.0000019133     1     2     2    10
 -0.0000000899     1     2     3     1
 -0.0000013980     1     2     3     3
 0.3649632828     1     2     3     4
 0.0000000763     1     2     3     5
 -0.0207090115     1     2     3    10
 0.0001004794     1     2     4     1
 0.3649758995     1     2     4     3
 0.0000013632     1     2     4     4
 -0.0411877560     1     2     4     5
 -0.0000000358     1     2     4    10
 -0.0000021941     1     2     5     1
 0.0000000763     1     2     5     3
 -0.0411933196     1     2     5     4
 -0.0000001767     1     2     5     5
 -0.3272101515     1     2     5    10
 -0.0000001971     1     2     6     6
 -0.0201089979     1     2     6     8
 -0.3331180676     1     2     6     9
 -0.0000001970     1     2     7     7
 -0.3331180676     1     2     7     8
 0.0201089980     1     2     7     9
 -0.0201075756     1     2     8     6
 -0.3330945058     1     2     8     7
 0.0000001408     1     2     8     8
 -0.3330945059     1     2     9     6
 0.0201075756     1     2     9     7
 0.0000001408     1     2     9     9
 0.0020164673     1     2    10     1
 -0.0207015642     1     2    10     3
 -0.0000000358     1     2    10     4
 -0.3271597906     1     2    10     5
 0.0000001275     1     2    10    10
 -0.0000000899     1     3     2     1
 0.0000946012     1     3     2     2
 -0.0000121008     1     3     2     4
 -0.0000073147     1     3     2    10
 -0.5442630660     1     3     3     1
 0.0000013980     1     3     3     2
 -0.0000001382     1     3     3     4
 -0.0013130954     1     3     3     5
 -0.0000012584     1     3     3    10
 0.0006926951     1     3     4     1
 -0.3649758995     1     3     4     2
 -0.0002755659     1     3     4     4
 -0.0000020409     1     3     4     5
 -0.0019813006     1     3     4    10
 -0.0072685168     1     3     5     1
 -0.0000000763     1     3     5     2
 -0.0000010255     1     3     5     4
 -0.0207624333     1     3     5     5
 -0.0000189334     1     3     5    10
 -0.0214380874     1     3     6     6
 -0.0000011240     1     3     6     8
 -0.0000186189     1     3     6     9
 -0.0214380874     1     3     7     7
 -0.0000186189     1     3     7     8
 0.0000011240     1     3     7     9
 -0.0000010465     1     3     8     6
 -0.0000173365     1     3     8     7
 -0.0177491049     1     3     8     8
 -0.0000173366     1     3     9     6
 0.0000010465     1     3     9     7
 -0.0177491049     1     3     9     9
 -0.0000393351     1     3    10     1
 0.0207015642     1     3    10     2
 -0.0010442204     1     3    10     4
 -0.0000169939     1     3    10     5
 -0.0185428285     1     3    10    10
 0.0001004794     1     4     2     1
 0.0000000954     1     4     2     2
 0.0000121008     1     4     2     3
 0.0000054261     1     4     2     5
 0.0006926951     1     4     3     1
 -0.3649632828     1     4     3     2
 0.0000001382     1     4     3     3
 -0.0000010093     1     4     3     5
 -0.0009140373     1     4     3    10
 -0.5494633520     1     4     4     1
 -0.0000013632     1     4     4     2
 0.0002755659     1     4     4     3
 0.0000195518     1     4     4     5
 0.0000000588     1     4     4    10
 -0.0000781834     1     4     5     1
 0.0411933196     1     4     5     2
 0.0000010255     1     4     5     3
 0.0000193737     1     4     5     5
 0.0195117297     1     4     5    10
 0.0000203946     1     4     6     6
 0.0011751152     1     4     6     8
 0.0194665145     1     4     6     9
 0.0000203946     1     4     7     7
 0.0194665145     1     4     7     8
 -0.0011751152     1     4     7     9
 0.0011206027     1     4     8     6
 0.0185634811     1     4     8     7
 0.0000172933     1     4     8     8
 0.0185634811     1     4     9     6
 -0.0011206027     1     4     9     7
 0.0000172933     1     4     9     9
 0.0212684345     1     4    10     1
 0.0000000358     1     4    10     2
 0.0010442204     1     4    10     3
 0.0184169249     1     4    10     5
 0.0000183786     1     4    10    10
 -0.0000021941     1     5     2     1
 0.0023126823     1     5     2     2
 -0.0000054261     1     5     2     4
 -0.0000506085     1     5     2    10
 -0.0072685168     1     5     3     1
 -0.0000000763     1     5     3     2
 0.0013130954     1     5     3     3
 0.0000010093     1     5     3     4
 -0.0000012948     1     5     3    10
 -0.0000781834     1     5     4     1
 0.0411877560     1     5     4     2
 0.0000020409     1     5     4     3
 -0.0000195518     1     5     4     4
 0.0003068587     1     5     4    10
 -0.5451670414     1     5     5     1
 0.0000001767     1     5     5     2
 0.0207624333     1     5     5     3
 -0.0000193737     1     5     5     4
 -0.0000001299     1     5     5    10
 0.0017611830     1     5     6     6
 -0.0000000240     1     5     6     8
 -0.0000003974     1     5     6     9
 0.0017611830     1     5     7     7
 -0.0000003974     1     5     7     8
 0.0000000240     1     5     7     9
 -0.0000000421     1     5     8     6
 -0.0000006981     1     5     8     7
 0.0014312135     1     5     8     8
 -0.0000006980     1     5     9     6
 0.0000000421     1     5     9     7
 0.0014312135     1     5     9     9
 -0.0006209504     1     5    10     1
 0.3271597906     1     5    10     2
 0.0000169939     1     5    10     3
 -0.0184169249     1     5    10     4
 0.0041458853     1     5    10    10
 -0.0000014970     1     6     2     8
 -0.0000247992     1     6     2     9
 -0.0000000405     1     6     3     8
 -0.0000006705     1     6     3     9
 0.0000124364     1     6     4     8
 0.0002060167     1     6     4     9
 -0.0000000013     1     6     5     8
 -0.0000000221     1     6     5     9
 -0.5504766501     1     6     6     1
 0.0000001971     1     6     6     2
 0.0214380874     1     6     6     3
 -0.0000203946     1     6     6     4
 -0.0017611830     1     6     6     5
 0.0000007277     1     6     6    10
 -0.0000381627     1     6     8     1
 0.0201075756     1     6     8     2
 0.0000010465     1     6     8     3
 -0.0011206027     1     6     8     4
 0.0000000421     1     6     8     5
 0.0001688378     1     6     8    10
 -0.0006321890     1     6     9     1
 0.3330945059     1     6     9     2
 0.0000173366     1     6     9     3
 -0.0185634811     1     6     9     4
 0.0000006980     1     6     9     5
 0.0027969046     1     6     9    10
 0.0000053127     1     6    10     8
 0.0000880076     1     6    10     9
 -0.0000247992     1     7     2     8
 0.0000014970     1     7     2     9
 -0.0000006705     1     7     3     8
 0.0000000405     1     7     3     9
 0.0002060167     1     7     4     8
 -0.0000124364     1     7     4     9
 -0.0000000221     1     7     5     8
 0.0000000013     1     7     5     9
 -0.5504766502     1     7     7     1
 0.0000001970     1     7     7     2
 0.0214380874     1     7     7     3
 -0.0000203946     1     7     7     4
 -0.0017611830     1     7     7     5
 0.0000007277     1     7     7    10
 -0.0006321890     1     7     8     1
 0.3330945058     1     7     8     2
 0.0000173365     1     7     8     3
 -0.0185634811     1     7     8     4
 0.0000006981     1     7     8     5
 0.0027969046     1     7     8    10
 0.0000381627     1     7     9     1
 -0.0201075756     1     7     9     2
 -0.0000010465     1     7     9     3
 0.0011206027     1     7     9     4
 -0.0000000421     1     7     9     5
 -0.0001688378     1     7     9    10
 0.0000880076     1     7    10     8
 -0.0000053127     1     7    10     9
 0.0000014970     1     8     2     6
 0.0000247992     1     8     2     7
 0.0000000405     1     8     3     6
 0.0000006705     1     8     3     7
 -0.0000124364     1     8     4     6
 -0.0002060167     1     8     4     7
 0.0000000013     1     8     5     6
 0.0000000221     1     8     5     7
 -0.0000381627     1     8     6     1
 0.0201089979     1     8     6     2
 0.0000011240     1     8     6     3
 -0.0011751152     1     8     6     4
 0.0000000240     1     8     6     5
 0.0001745853     1     8     6    10
 -0.0006321890     1     8     7     1
 0.3331180676     1     8     7     2
 0.0000186189     1     8     7     3
 -0.0194665145     1     8     7     4
 0.0000003974     1     8     7     5
 0.0028921144     1     8     7    10
 -0.5245615928     1     8     8     1
 -0.0000001408     1     8     8     2
 0.0177491049     1     8     8     3
 -0.0000172933     1     8     8     4
 -0.0014312135     1     8     8     5
 0.0000008515     1     8     8    10
 -0.0000053127     1     8    10     6
 -0.0000880076     1     8    10     7
 0.0000247992     1     9     2     6
 -0.0000014970     1     9     2     7
 0.0000006705     1     9     3     6
 -0.0000000405     1     9     3     7
 -0.0002060167     1     9     4     6
 0.0000124364     1     9     4     7
 0.0000000221     1     9     5     6
 -0.0000000013     1     9     5     7
 -0.0006321890     1     9     6     1
 0.3331180676     1     9     6     2
 0.0000186189     1     9     6     3
 -0.0194665145     1     9     6     4
 0.0000003974     1     9     6     5
 0.0028921144     1     9     6    10
 0.0000381627     1     9     7     1
 -0.0201089980     1     9     7     2
 -0.0000011240     1     9     7     3
 0.0011751152     1     9     7     4
 -0.0000000240     1     9     7     5
 -0.0001745853     1     9     7    10
 -0.5245615928     1     9     9     1
 -0.0000001408     1     9     9     2
 0.0177491049     1     9     9     3
 -0.0000172933     1     9     9     4
 -0.0014312135     1     9     9     5
 0.0000008515     1     9     9    10
 -0.0000880076     1     9    10     6
 0.0000053127     1     9    10     7
 0.0020164673     1    10     2     1
 0.0000019133     1    10     2     2
 0.0000073147     1    10     2     3
 0.0000506085     1    10     2     5
 -0.0000393351     1    10     3     1
 0.0207090115     1    10     3     2
 0.0000012584     1    10     3     3
 0.0009140373     1    10     3     4
 0.0000012948     1    10     3     5
 0.0212684345     1    10     4     1
 0.0000000358     1    10     4     2
 0.0019813006     1    10     4     3
 -0.0000000588     1    10     4     4
 -0.0003068587     1    10     4     5
 -0.0006209504     1    10     5     1
 0.3272101515     1    10     5     2
 0.0000189334     1    10     5     3
 -0.0195117297     1    10     5     4
 0.0000001299     1    10     5     5
 -0.0000007277     1    10     6     6
 -0.0001745853     1    10     6     8
 -0.0028921144     1    10     6     9
 -0.0000007277     1    10     7     7
 -0.0028921144     1    10     7     8
 0.0001745853     1    10     7     9
 -0.0001688378     1    10     8     6
 -0.0027969046     1    10     8     7
 -0.0000008515     1    10     8     8
 -0.0027969046     1    10     9     6
 0.0001688378     1    10     9     7
 -0.0000008515     1    10     9     9
 -0.5424618413     1    10    10     1
 -0.0000001275     1    10    10     2
 0.0185428285     1    10    10     3
 -0.0000183786     1    10    10     4
 -0.0041458853     1    10    10     5
 -0.1824494543     2     1     1     2
 -0.0000000899     2     1     1     3
 0.0001004794     2     1     1     4
 -0.0000021941     2     1     1     5
 0.0020164673     2     1     1    10
 -0.0000946012     2     1     3     2
 -0.0000013980     2     1     3     3
 0.3649758995     2     1     3     4
 0.0000000763     2     1     3     5
 -0.0207015642     2     1     3    10
 -0.0000000954     2     1     4     2
 0.3649632828     2     1     4     3
 0.0000013632     2     1     4     4
 -0.0411933196     2     1     4     5
 -0.0000000358     2     1     4    10
 -0.0023126823     2     1     5     2
 0.0000000763     2     1     5     3
 -0.0411877560     2     1     5     4
 -0.0000001767     2     1     5     5
 -0.3271597906     2     1     5    10
 -0.0000001971     2     1     6     6
 -0.0201075756     2     1     6     8
 -0.3330945059     2     1     6     9
 -0.0000001970     2     1     7     7
 -0.3330945058     2     1     7     8
 0.0201075756     2     1     7     9
 -0.0201089979     2     1     8     6
 -0.3331180676     2     1     8     7
 0.0000001408     2     1     8     8
 -0.3331180676     2     1     9     6
 0.0201089980     2     1     9     7
 0.0000001408     2     1     9     9
 -0.0000019133     2     1    10     2
 -0.0207090115     2     1    10     3
 -0.0000000358     2     1    10     4
 -0.3272101515     2     1    10     5
 0.0000001275     2     1    10    10
 0.1824494543     2     2     1     1
 0.0000946012     2     2     1     3
 0.0000000954     2     2     1     4
 0.0023126823     2     2     1     5
 0.0000019133     2     2     1    10
 0.0000946012     2     2     3     1
 0.5442512816     2     2     3     3
 0.0006926358     2     2     3     4
 0.0072666227     2     2     3     5
 -0.0000392569     2     2     3    10
 0.0000000954     2     2     4     1
 0.0006926358     2     2     4     3
 0.5494753225     2     2     4     4
 -0.0000781654     2     2     4     5
 -0.0212641946     2     2     4    10
 0.0023126823     2     2     5     1
 0.0072666227     2     2     5     3
 -0.0000781654     2     2     5     4
 0.5452232532     2     2     5     5
 -0.0006209600     2     2     5    10
 0.5505064777     2     2     6     6
 -0.0000381632     2     2     6     8
 -0.0006321971     2     2     6     9
 0.5505064777     2     2     7     7
 -0.0006321971     2     2     7     8
 0.0000381631     2     2     7     9
 -0.0000381632     2     2     8     6
 -0.0006321971     2     2     8     7
 0.5245412523     2     2     8     8
 -0.0006321971     2     2     9     6
 0.0000381631     2     2     9     7
 0.5245412523     2     2     9     9
 0.0000019133     2     2    10     1
 -0.0000392569     2     2    10     3
 -0.0212641946     2     2    10     4
 -0.0006209600     2     2    10     5
 0.5424137992     2     2    10    10
 0.0000000899     2     3     1     1
 -0.0000946012     2     3     1     2
 0.0000121008     2     3     1     4
 0.0000073147     2     3     1    10
 0.0000013980     2     3     3     1
 -0.5442512816     2     3     3     2
 0.0001462930     2     3     3     4
 -0.0000012520     2     3     3     5
 0.0013322673     2     3     3    10
 -0.3649632828     2     3     4     1
 -0.0006926358     2     3     4     2
 -0.0000002613     2     3     4     4
 0.0021476664     2     3     4     5
 -0.0000018776     2     3     4    10
 -0.0000000763     2     3     5     1
 -0.0072666227     2     3     5     2
 0.0010808380     2     3     5     4
 -0.0000196537     2     3     5     5
 0.0199111138     2     3     5    10
 -0.0000202903     2     3     6     6
 0.0011819658     2     3     6     8
 0.0195799997     2     3     6     9
 -0.0000202903     2     3     7     7
 0.0195799997     2     3     7     8
 -0.0011819658     2     3     7     9
 0.0011004801     2     3     8     6
 0.0182301372     2     3     8     7
 -0.0000168134     2     3     8     8
 0.0182301372     2     3     9     6
 -0.0011004801     2     3     9     7
 -0.0000168134     2     3     9     9
 0.0207090115     2     3    10     1
 0.0000392569     2     3    10     2
 -0.0000009912     2     3    10     4
 0.0178687967     2     3    10     5
 -0.0000175624     2     3    10    10
 -0.0001004794     2     4     1     1
 -0.0000000954     2     4     1     2
 -0.0000121008     2     4     1     3
 -0.0000054261     2     4     1     5
 -0.3649758995     2     4     3     1
 -0.0006926358     2     4     3     2
 -0.0001462930     2     4     3     3
 0.0010605575     2     4     3     5
 -0.0000008645     2     4     3    10
 -0.0000013632     2     4     4     1
 -0.5494753225     2     4     4     2
 0.0000002613     2     4     4     3
 0.0000000247     2     4     4     5
 -0.0000677515     2     4     4    10
 0.0411877560     2     4     5     1
 0.0000781654     2     4     5     2
 -0.0010808380     2     4     5     3
 -0.0204479779     2     4     5     5
 0.0000185515     2     4     5    10
 -0.0215224875     2     4     6     6
 0.0000011172     2     4     6     8
 0.0000185081     2     4     6     9
 -0.0215224875     2     4     7     7
 0.0000185081     2     4     7     8
 -0.0000011172     2     4     7     9
 0.0000010653     2     4     8     6
 0.0000176482     2     4     8     7
 -0.0182654031     2     4     8     8
 0.0000176482     2     4     9     6
 -0.0000010654     2     4     9     7
 -0.0182654031     2     4     9     9
 0.0000000358     2     4    10     1
 0.0212641946     2     4    10     2
 0.0000009912     2     4    10     3
 0.0000175079     2     4    10     5
 -0.0194085068     2     4    10    10
 0.0000021941     2     5     1     1
 -0.0023126823     2     5     1     2
 0.0000054261     2     5     1     4
 0.0000506085     2     5     1    10
 -0.0000000763     2     5     3     1
 -0.0072666227     2     5     3     2
 0.0000012520     2     5     3     3
 -0.0010605575     2     5     3     4
 0.0013637159     2     5     3    10
 0.0411933196     2     5     4     1
 0.0000781654     2     5     4     2
 -0.0021476664     2     5     4     3
 -0.0000000247     2     5     4     4
 0.0000002938     2     5     4    10
 0.0000001767     2     5     5     1
 -0.5452232532     2     5     5     2
 0.0000196537     2     5     5     3
 0.0204479779     2     5     5     4
 0.0001376029     2     5     5    10
 0.0000016718     2     5     6     6
 0.0000252315     2     5     6     8
 0.0004179752     2     5     6     9
 0.0000016718     2     5     7     7
 0.0004179752     2     5     7     8
 -0.0000252315     2     5     7     9
 0.0000443602     2     5     8     6
 0.0007348557     2     5     8     7
 0.0000013580     2     5     8     8
 0.0007348558     2     5     9     6
 -0.0000443603     2     5     9     7
 0.0000013580     2     5     9     9
 0.3272101515     2     5    10     1
 0.0006209600     2     5    10     2
 -0.0178687967     2     5    10     3
 -0.0000175079     2     5    10     4
 0.0000039338     2     5    10    10
 0.0000014970     2     6     1     8
 0.0000247992     2     6     1     9
 0.0000426143     2     6     3     8
 0.0007059324     2     6     3     9
 0.0000000119     2     6     4     8
 0.0000001965     2     6     4     9
 0.0000013915     2     6     5     8
 0.0000230498     2     6     5     9
 0.0000001971     2     6     6     1
 -0.5505064777     2     6     6     2
 0.0000202903     2     6     6     3
 0.0215224875     2     6     6     4
 -0.0000016718     2     6     6     5
 -0.0007651020     2     6     6    10
 0.0201089979     2     6     8     1
 0.0000381632     2     6     8     2
 -0.0011004801     2     6     8     3
 -0.0000010653     2     6     8     4
 -0.0000443602     2     6     8     5
 0.0000001602     2     6     8    10
 0.3331180676     2     6     9     1
 0.0006321971     2     6     9     2
 -0.0182301372     2     6     9     3
 -0.0000176482     2     6     9     4
 -0.0007348558     2     6     9     5
 0.0000026539     2     6     9    10
 0.0000000051     2     6    10     8
 0.0000000836     2     6    10     9
 0.0000247992     2     7     1     8
 -0.0000014970     2     7     1     9
 0.0007059324     2     7     3     8
 -0.0000426143     2     7     3     9
 0.0000001965     2     7     4     8
 -0.0000000119     2     7     4     9
 0.0000230498     2     7     5     8
 -0.0000013914     2     7     5     9
 0.0000001970     2     7     7     1
 -0.5505064777     2     7     7     2
 0.0000202903     2     7     7     3
 0.0215224875     2     7     7     4
 -0.0000016718     2     7     7     5
 -0.0007651020     2     7     7    10
 0.3331180676     2     7     8     1
 0.0006321971     2     7     8     2
 -0.0182301372     2     7     8     3
 -0.0000176482     2     7     8     4
 -0.0007348557     2     7     8     5
 0.0000026539     2     7     8    10
 -0.0201089980     2     7     9     1
 -0.0000381631     2     7     9     2
 0.0011004801     2     7     9     3
 0.0000010654     2     7     9     4
 0.0000443603     2     7     9     5
 -0.0000001602     2     7     9    10
 0.0000000836     2     7    10     8
 -0.0000000051     2     7    10     9
 -0.0000014970     2     8     1     6
 -0.0000247992     2     8     1     7
 -0.0000426143     2     8     3     6
 -0.0007059324     2     8     3     7
 -0.0000000119     2     8     4     6
 -0.0000001965     2     8     4     7
 -0.0000013915     2     8     5     6
 -0.0000230498     2     8     5     7
 0.0201075756     2     8     6     1
 0.0000381632     2     8     6     2
 -0.0011819658     2     8     6     3
 -0.0000011172     2     8     6     4
 -0.0000252315     2     8     6     5
 0.0000001657     2     8     6    10
 0.3330945058     2     8     7     1
 0.0006321971     2     8     7     2
 -0.0195799997     2     8     7     3
 -0.0000185081     2     8     7     4
 -0.0004179752     2     8     7     5
 0.0000027442     2     8     7    10
 -0.0000001408     2     8     8     1
 -0.5245412523     2     8     8     2
 0.0000168134     2     8     8     3
 0.0182654031     2     8     8     4
 -0.0000013580     2     8     8     5
 -0.0008980636     2     8     8    10
 -0.0000000051     2     8    10     6
 -0.0000000836     2     8    10     7
 -0.0000247992     2     9     1     6
 0.0000014970     2     9     1     7
 -0.0007059324     2     9     3     6
 0.0000426143     2     9     3     7
 -0.0000001965     2     9     4     6
 0.0000000119     2     9     4     7
 -0.0000230498     2     9     5     6
 0.0000013914     2     9     5     7
 0.3330945059     2     9     6     1
 0.0006321971     2     9     6     2
 -0.0195799997     2     9     6     3
 -0.0000185081     2     9     6     4
 -0.0004179752     2     9     6     5
 0.0000027442     2     9     6    10
 -0.0201075756     2     9     7     1
 -0.0000381631     2     9     7     2
 0.0011819658     2     9     7     3
 0.0000011172     2     9     7     4
 0.0000252315     2     9     7     5
 -0.0000001657     2     9     7    10
 -0.0000001408     2     9     9     1
 -0.5245412523     2     9     9     2
 0.0000168134     2     9     9     3
 0.0182654031     2     9     9     4
 -0.0000013580     2     9     9     5
 -0.0008980636     2     9     9    10
 -0.0000000836     2     9    10     6
 0.0000000051     2     9    10     7
 -0.0020164673     2    10     1     1
 -0.0000019133     2    10     1     2
 -0.0000073147     2    10     1     3
 -0.0000506085     2    10     1     5
 0.0207015642     2    10     3     1
 0.0000392569     2    10     3     2
 -0.0013322673     2    10     3     3
 0.0000008645     2    10     3     4
 -0.0013637159     2    10     3     5
 0.0000000358     2    10     4     1
 0.0212641946     2    10     4     2
 0.0000018776     2    10     4     3
 0.0000677515     2    10     4     4
 -0.0000002938     2    10     4     5
 0.3271597906     2    10     5     1
 0.0006209600     2    10     5     2
 -0.0199111138     2    10     5     3
 -0.0000185515     2    10     5     4
 -0.0001376029     2    10     5     5
 0.0007651020     2    10     6     6
 -0.0000001657     2    10     6     8
 -0.0000027442     2    10     6     9
 0.0007651020     2    10     7     7
 -0.0000027442     2    10     7     8
 0.0000001657     2    10     7     9
 -0.0000001602     2    10     8     6
 -0.0000026539     2    10     8     7
 0.0008980636     2    10     8     8
 -0.0000026539     2    10     9     6
 0.0000001602     2    10     9     7
 0.0008980636     2    10     9     9
 -0.0000001275     2    10    10     1
 -0.5424137992     2    10    10     2
 0.0000175624     2    10    10     3
 0.0194085068     2    10    10     4
 -0.0000039338     2    10    10     5
 -0.0000000899     3     1     1     2
 -0.5442630660     3     1     1     3
 0.0006926951     3     1     1     4
 -0.0072685168     3     1     1     5
 -0.0000393351     3     1     1    10
 0.0000946012     3     1     2     2
 0.0000013980     3     1     2     3
 -0.3649758995     3     1     2     4
 -0.0000000763     3     1     2     5
 0.0207015642     3     1     2    10
 -0.0000121008     3     1     4     2
 -0.0000001382     3     1     4     3
 -0.0002755659     3     1     4     4
 -0.0000010255     3     1     4     5
 -0.0010442204     3     1     4    10
 -0.0013130954     3     1     5     3
 -0.0000020409     3     1     5     4
 -0.0207624333     3     1     5     5
 -0.0000169939     3     1     5    10
 -0.0214380874     3     1     6     6
 -0.0000010465     3     1     6     8
 -0.0000173366     3     1     6     9
 -0.0214380874     3     1     7     7
 -0.0000173365     3     1     7     8
 0.0000010465     3     1     7     9
 -0.0000011240     3     1     8     6
 -0.0000186189     3     1     8     7
 -0.0177491049     3     1     8     8
 -0.0000186189     3     1     9     6
 0.0000011240     3     1     9     7
 -0.0177491049     3     1     9     9
 -0.0000073147     3     1    10     2
 -0.0000012584     3     1    10     3
 -0.0019813006     3     1    10     4
 -0.0000189334     3     1    10     5
 -0.0185428285     3     1    10    10
 0.0000000899     3     2     1     1
 0.0000013980     3     2     1     3
 -0.3649632828     3     2     1     4
 -0.0000000763     3     2     1     5
 0.0207090115     3     2     1    10
 -0.0000946012     3     2     2     1
 -0.5442512816     3     2     2     3
 -0.0006926358     3     2     2     4
 -0.0072666227     3     2     2     5
 0.0000392569     3     2     2    10
 0.0000121008     3     2     4     1
 0.0001462930     3     2     4     3
 -0.0000002613     3     2     4     4
 0.0010808380     3     2     4     5
 -0.0000009912     3     2     4    10
 -0.0000012520     3     2     5     3
 0.0021476664     3     2     5     4
 -0.0000196537     3     2     5     5
 0.0178687967     3     2     5    10
 -0.0000202903     3     2     6     6
 0.0011004801     3     2     6     8
 0.0182301372     3     2     6     9
 -0.0000202903     3     2     7     7
 0.0182301372     3     2     7     8
 -0.0011004801     3     2     7     9
 0.0011819658     3     2     8     6
 0.0195799997     3     2     8     7
 -0.0000168134     3     2     8     8
 0.0195799997     3     2     9     6
 -0.0011819658     3     2     9     7
 -0.0000168134     3     2     9     9
 0.0000073147     3     2    10     1
 0.0013322673     3     2    10     3
 -0.0000018776     3     2    10     4
 0.0199111138     3     2    10     5
 -0.0000175624     3     2    10    10
 0.5442630660     3     3     1     1
 -0.0000013980     3     3     1     2
 0.0000001382     3     3     1     4
 0.0013130954     3     3     1     5
 0.0000012584     3     3     1    10
 -0.0000013980     3     3     2     1
 0.5442512816     3     3     2     2
 -0.0001462930     3     3     2     4
 0.0000012520     3     3     2     5
 -0.0013322673     3     3     2    10
 0.0000001382     3     3     4     1
 -0.0001462930     3     3     4     2
 0.1795158718     3     3     4     4
 0.0000000693     3     3     4     5
 -0.0114229152     3     3     4    10
 0.0013130954     3     3     5     1
 0.0000012520     3     3     5     2
 0.0000000693     3     3     5     4
 0.3521253532     3     3     5     5
 0.0000006141     3     3     5    10
 0.3538821566     3     3     6     6
 0.0000000380     3     3     6     8
 0.0000006295     3     3     6     9
 0.3538821567     3     3     7     7
 0.0000006295     3     3     7     8
 -0.0000000380     3     3     7     9
 0.0000000380     3     3     8     6
 0.0000006295     3     3     8     7
 0.3525776463     3     3     8     8
 0.0000006295     3     3     9     6
 -0.0000000380     3     3     9     7
 0.3525776463     3     3     9     9
 0.0000012584     3     3    10     1
 -0.0013322673     3     3    10     2
 -0.0114229152     3     3    10     4
 0.0000006141     3     3    10     5
 0.3633984191     3     3    10    10
 -0.0006926951     3     4     1     1
 0.3649632828     3     4     1     2
 -0.0000001382     3     4     1     3
 0.0000010093     3     4     1     5
 0.0009140373     3     4     1    10
 0.3649758995     3     4     2     1
 0.0006926358     3     4     2     2
 0.0001462930     3     4     2     3