&FCI NORB= 10,NELEC= 14,MS2=0,
 ORBSYM=1,1,1,1,1,1,1,1,1,1
 ISYM=1,
&END
 0.1959691735     1     1     2     2
 0.0000000784     1     1     2     3
 -0.0001510768     1     1     2     4
 0.0000016790     1     1     2     5
 0.0023492992     1     1     2    10
 0.0000000784     1     1     3     2
 0.5504824085     1     1     3     3
 -0.0004543956     1     1     3     4
 0.0078635624     1     1     3     5
 -0.0000341406     1     1     3    10
 -0.0001510768     1     1     4     2
 -0.0004543956     1     1     4     3
 0.5568811997     1     1     4     4
 0.0000649225     1     1     4     5
 0.0253236820     1     1     4    10
 0.0000016790     1     1     5     2
 0.0078635624     1     1     5     3
 0.0000649225     1     1     5     4
 0.5501823270     1     1     5     5
 -0.0004024127     1     1     5    10
 0.5558235493     1     1     6     6
 -0.0004135184     1     1     6     8
 -0.0000325892     1     1     6     9
 0.5558235494     1     1     7     7
 -0.0000325892     1     1     7     8
 0.0004135184     1     1     7     9
 -0.0004135184     1     1     8     6
 -0.0000325892     1     1     8     7
 0.5319783691     1     1     8     8
 -0.0000325892     1     1     9     6
 0.0004135184     1     1     9     7
 0.5319783691     1     1     9     9
 0.0023492992     1     1    10     2
 -0.0000341406     1     1    10     3
 0.0253236820     1     1    10     4
 -0.0004024127     1     1    10     5
 0.5533964752     1     1    10    10
 -0.1959691735     1     2     2     1
 -0.0001233346     1     2     2     3
 -0.0000000960     1     2     2     4
 -0.0026466387     1     2     2     5
 0.0000014906     1     2     2    10
 -0.0000000784     1     2     3     1
 -0.0000008131     1     2     3     3
 0.3580217484     1     2     3     4
 0.0000000535     1     2     3     5
 0.0268845664     1     2     3    10
 0.0001510768     1     2     4     1
 0.3580338972     1     2     4     3
 0.0000007908     1     2     4     4
 -0.0511472643     1     2     4     5
 0.0000000269     1     2     4    10
 -0.0000016790     1     2     5     1
 0.0000000535     1     2     5     3
 -0.0511548848     1     2     5     4
 -0.0000001380     1     2     5     5
 0.3171138939     1     2     5    10
 -0.0000001372     1     2     6     6
 0.3258507381     1     2     6     8
 0.0256801681     1     2     6     9
 -0.0000001372     1     2     7     7
 0.0256801681     1     2     7     8
 -0.3258507381     1     2     7     9
 0.3258213342     1     2     8     6
 0.0256778508     1     2     8     7
 0.0000001038     1     2     8     8
 0.0256778508     1     2     9     6
 -0.3258213342     1     2     9     7
 0.0000001038     1     2     9     9
 -0.0023492992     1     2    10     1
 0.0268755201     1     2    10     3
 0.0000000269     1     2    10     4
 0.3170513302     1     2    10     5
 0.0000000920     1     2    10    10
 -0.0000000784     1     3     2     1
 0.0001233346     1     3     2     2
 -0.0000118397     1     3     2     4
 0.0000089576     1     3     2    10
 -0.5504824085     1     3     3     1
 0.0000008131     1     3     3     2
 -0.0000000989     1     3     3     4
 -0.0016315807     1     3     3     5
 0.0000010468     1     3     3    10
 0.0004543956     1     3     4     1
 -0.3580338972     1     3     4     2
 -0.0003242472     1     3     4     4
 -0.0000016067     1     3     4     5
 0.0023581458     1     3     4    10
 -0.0078635624     1     3     5     1
 -0.0000000535     1     3     5     2
 -0.0000008976     1     3     5     4
 -0.0205346024     1     3     5     5
 0.0000126537     1     3     5    10
 -0.0213050264     1     3     6     6
 0.0000124045     1     3     6     8
 0.0000009776     1     3     6     9
 -0.0213050264     1     3     7     7
 0.0000009776     1     3     7     8
 -0.0000124045     1     3     7     9
 0.0000114873     1     3     8     6
 0.0000009053     1     3     8     7
 -0.0177978728     1     3     8     8
 -0.0000000001     1     3     8     9
 0.0000009053     1     3     9     6
 -0.0000114873     1     3     9     7
 -0.0000000001     1     3     9     8
 -0.0177978728     1     3     9     9
 0.0000341406     1     3    10     1
 -0.0268755201     1     3    10     2
 0.0013001409     1     3    10     4
 0.0000111577     1     3    10     5
 -0.0187161290     1     3    10    10
 0.0001510768     1     4     2     1
 0.0000000960     1     4     2     2
 0.0000118397     1     4     2     3
 0.0000073716     1     4     2     5
 0.0000000001     1     4     2    10
 0.0004543956     1     4     3     1
 -0.3580217484     1     4     3     2
 0.0000000989     1     4     3     3
 -0.0000007019     1     4     3     5
 0.0010152326     1     4     3    10
 -0.5568811997     1     4     4     1
 -0.0000007908     1     4     4     2
 0.0003242472     1     4     4     3
 0.0001453326     1     4     4     5
 -0.0000001174     1     4     4    10
 -0.0000649225     1     4     5     1
 0.0511548848     1     4     5     2
 0.0000008976     1     4     5     3
 0.0000127860     1     4     5     5
 -0.0194427587     1     4     5    10
 0.0000135933     1     4     6     6
 -0.0193782546     1     4     6     8
 -0.0015271926     1     4     6     9
 0.0000135933     1     4     7     7
 -0.0015271926     1     4     7     8
 0.0193782546     1     4     7     9
 -0.0184854875     1     4     8     6
 -0.0014568340     1     4     8     7
 0.0000116952     1     4     8     8
 -0.0014568340     1     4     9     6
 0.0184854875     1     4     9     7
 0.0000116952     1     4     9     9
 -0.0253236820     1     4    10     1
 -0.0000000269     1     4    10     2
 -0.0013001409     1     4    10     3
 -0.0181914152     1     4    10     5
 0.0000125678     1     4    10    10
 -0.0000016790     1     5     2     1
 0.0026466387     1     5     2     2
 -0.0000073716     1     5     2     4
 0.0000628137     1     5     2    10
 -0.0078635624     1     5     3     1
 -0.0000000535     1     5     3     2
 0.0016315807     1     5     3     3
 0.0000007019     1     5     3     4
 0.0000010305     1     5     3    10
 -0.0000649225     1     5     4     1
 0.0511472643     1     5     4     2
 0.0000016067     1     5     4     3
 -0.0001453326     1     5     4     4
 -0.0003788858     1     5     4    10
 -0.5501823270     1     5     5     1
 0.0000001380     1     5     5     2
 0.0205346024     1     5     5     3
 -0.0000127860     1     5     5     4
 -0.0000000290     1     5     5    10
 0.0021938123     1     5     6     6
 0.0000002188     1     5     6     8
 0.0000000173     1     5     6     9
 0.0021938123     1     5     7     7
 0.0000000173     1     5     7     8
 -0.0000002188     1     5     7     9
 0.0000003944     1     5     8     6
 0.0000000311     1     5     8     7
 0.0017803784     1     5     8     8
 0.0000000311     1     5     9     6
 -0.0000003944     1     5     9     7
 0.0017803784     1     5     9     9
 0.0004024127     1     5    10     1
 -0.3170513302     1     5    10     2
 -0.0000111577     1     5    10     3
 0.0181914152     1     5    10     4
 0.0050249620     1     5    10    10
 0.0000306200     1     6     2     8
 0.0000024132     1     6     2     9
 0.0000004960     1     6     3     8
 0.0000000391     1     6     3     9
 -0.0001608078     1     6     4     8
 -0.0000126732     1     6     4     9
 0.0000000482     1     6     5     8
 0.0000000038     1     6     5     9
 -0.5558235493     1     6     6     1
 0.0000001372     1     6     6     2
 0.0213050264     1     6     6     3
 -0.0000135933     1     6     6     4
 -0.0021938123     1     6     6     5
 -0.0000006539     1     6     6    10
 0.0004135184     1     6     8     1
 -0.3258213342     1     6     8     2
 -0.0000114873     1     6     8     3
 0.0184854875     1     6     8     4
 -0.0000003944     1     6     8     5
 0.0033830387     1     6     8    10
 0.0000325892     1     6     9     1
 -0.0256778508     1     6     9     2
 -0.0000009053     1     6     9     3
 0.0014568340     1     6     9     4
 -0.0000000311     1     6     9     5
 0.0002666159     1     6     9    10
 0.0001032367     1     6    10     8
 0.0000081360     1     6    10     9
 0.0000024132     1     7     2     8
 -0.0000306200     1     7     2     9
 0.0000000391     1     7     3     8
 -0.0000004960     1     7     3     9
 -0.0000126732     1     7     4     8
 0.0001608078     1     7     4     9
 0.0000000038     1     7     5     8
 -0.0000000482     1     7     5     9
 -0.5558235494     1     7     7     1
 0.0000001372     1     7     7     2
 0.0213050264     1     7     7     3
 -0.0000135933     1     7     7     4
 -0.0021938123     1     7     7     5
 -0.0000006539     1     7     7    10
 0.0000325892     1     7     8     1
 -0.0256778508     1     7     8     2
 -0.0000009053     1     7     8     3
 0.0014568340     1     7     8     4
 -0.0000000311     1     7     8     5
 0.0002666159     1     7     8    10
 -0.0004135184     1     7     9     1
 0.3258213342     1     7     9     2
 0.0000114873     1     7     9     3
 -0.0184854875     1     7     9     4
 0.0000003944     1     7     9     5
 -0.0033830387     1     7     9    10
 0.0000081360     1     7    10     8
 -0.0001032367     1     7    10     9
 -0.0000306200     1     8     2     6
 -0.0000024132     1     8     2     7
 -0.0000004960     1     8     3     6
 -0.0000000391     1     8     3     7
 0.0001608078     1     8     4     6
 0.0000126732     1     8     4     7
 -0.0000000482     1     8     5     6
 -0.0000000038     1     8     5     7
 0.0004135184     1     8     6     1
 -0.3258507381     1     8     6     2
 -0.0000124045     1     8     6     3
 0.0193782546     1     8     6     4
 -0.0000002188     1     8     6     5
 0.0035158641     1     8     6    10
 0.0000325892     1     8     7     1
 -0.0256801681     1     8     7     2
 -0.0000009776     1     8     7     3
 0.0015271926     1     8     7     4
 -0.0000000173     1     8     7     5
 0.0002770839     1     8     7    10
 -0.5319783691     1     8     8     1
 -0.0000001038     1     8     8     2
 0.0177978728     1     8     8     3
 -0.0000116952     1     8     8     4
 -0.0017803784     1     8     8     5
 -0.0000007909     1     8     8    10
 0.0000000001     1     8     9     3
 -0.0001032367     1     8    10     6
 -0.0000081360     1     8    10     7
 -0.0000024132     1     9     2     6
 0.0000306200     1     9     2     7
 -0.0000000391     1     9     3     6
 0.0000004960     1     9     3     7
 0.0000126732     1     9     4     6
 -0.0001608078     1     9     4     7
 -0.0000000038     1     9     5     6
 0.0000000482     1     9     5     7
 0.0000325892     1     9     6     1
 -0.0256801681     1     9     6     2
 -0.0000009776     1     9     6     3
 0.0015271926     1     9     6     4
 -0.0000000173     1     9     6     5
 0.0002770838     1     9     6    10
 -0.0004135184     1     9     7     1
 0.3258507381     1     9     7     2
 0.0000124045     1     9     7     3
 -0.0193782546     1     9     7     4
 0.0000002188     1     9     7     5
 -0.0035158640     1     9     7    10
 0.0000000001     1     9     8     3
 -0.5319783691     1     9     9     1
 -0.0000001038     1     9     9     2
 0.0177978728     1     9     9     3
 -0.0000116952     1     9     9     4
 -0.0017803784     1     9     9     5
 -0.0000007909     1     9     9    10
 -0.0000081360     1     9    10     6
 0.0001032367     1     9    10     7
 -0.0023492992     1    10     2     1
 -0.0000014906     1    10     2     2
 -0.0000089576     1    10     2     3
 -0.0000000001     1    10     2     4
 -0.0000628137     1    10     2     5
 0.0000341406     1    10     3     1
 -0.0268845664     1    10     3     2
 -0.0000010468     1    10     3     3
 -0.0010152326     1    10     3     4
 -0.0000010305     1    10     3     5
 -0.0253236820     1    10     4     1
 -0.0000000269     1    10     4     2
 -0.0023581458     1    10     4     3
 0.0000001174     1    10     4     4
 0.0003788858     1    10     4     5
 0.0004024127     1    10     5     1
 -0.3171138939     1    10     5     2
 -0.0000126537     1    10     5     3
 0.0194427587     1    10     5     4
 0.0000000290     1    10     5     5
 0.0000006539     1    10     6     6
 -0.0035158641     1    10     6     8
 -0.0002770838     1    10     6     9
 0.0000006539     1    10     7     7
 -0.0002770839     1    10     7     8
 0.0035158640     1    10     7     9
 -0.0033830387     1    10     8     6
 -0.0002666159     1    10     8     7
 0.0000007909     1    10     8     8
 -0.0002666159     1    10     9     6
 0.0033830387     1    10     9     7
 0.0000007909     1    10     9     9
 -0.5533964752     1    10    10     1
 -0.0000000920     1    10    10     2
 0.0187161290     1    10    10     3
 -0.0000125678     1    10    10     4
 -0.0050249620     1    10    10     5
 -0.1959691735     2     1     1     2
 -0.0000000784     2     1     1     3
 0.0001510768     2     1     1     4
 -0.0000016790     2     1     1     5
 -0.0023492992     2     1     1    10
 -0.0001233346     2     1     3     2
 -0.0000008131     2     1     3     3
 0.3580338972     2     1     3     4
 0.0000000535     2     1     3     5
 0.0268755201     2     1     3    10
 -0.0000000960     2     1     4     2
 0.3580217484     2     1     4     3
 0.0000007908     2     1     4     4
 -0.0511548848     2     1     4     5
 0.0000000269     2     1     4    10
 -0.0026466387     2     1     5     2
 0.0000000535     2     1     5     3
 -0.0511472643     2     1     5     4
 -0.0000001380     2     1     5     5
 0.3170513302     2     1     5    10
 -0.0000001372     2     1     6     6
 0.3258213342     2     1     6     8
 0.0256778508     2     1     6     9
 -0.0000001372     2     1     7     7
 0.0256778508     2     1     7     8
 -0.3258213342     2     1     7     9
 0.3258507381     2     1     8     6
 0.0256801681     2     1     8     7
 0.0000001038     2     1     8     8
 0.0256801681     2     1     9     6
 -0.3258507381     2     1     9     7
 0.0000001038     2     1     9     9
 0.0000014906     2     1    10     2
 0.0268845664     2     1    10     3
 0.0000000269     2     1    10     4
 0.3171138939     2     1    10     5
 0.0000000920     2     1    10    10
 0.1959691735     2     2     1     1
 0.0001233346     2     2     1     3
 0.0000000960     2     2     1     4
 0.0026466387     2     2     1     5
 -0.0000014906     2     2     1    10
 0.0001233346     2     2     3     1
 0.5504705398     2     2     3     3
 0.0004543557     2     2     3     4
 0.0078607502     2     2     3     5
 0.0000340867     2     2     3    10
 0.0000000960     2     2     4     1
 0.0004543557     2     2     4     3
 0.5568928847     2     2     4     4
 -0.0000649098     2     2     4     5
 0.0253187273     2     2     4    10
 0.0026466387     2     2     5     1
 0.0078607502     2     2     5     3
 -0.0000649098     2     2     5     4
 0.5502510882     2     2     5     5
 0.0004024109     2     2     5    10
 0.5558604209     2     2     6     6
 0.0004135232     2     2     6     8
 0.0000325896     2     2     6     9
 0.5558604209     2     2     7     7
 0.0000325896     2     2     7     8
 -0.0004135232     2     2     7     9
 0.0004135232     2     2     8     6
 0.0000325896     2     2     8     7
 0.5319534880     2     2     8     8
 0.0000325896     2     2     9     6
 -0.0004135232     2     2     9     7
 0.5319534880     2     2     9     9
 -0.0000014906     2     2    10     1
 0.0000340867     2     2    10     3
 0.0253187273     2     2    10     4
 0.0004024109     2     2    10     5
 0.5533359123     2     2    10    10
 0.0000000784     2     3     1     1
 -0.0001233346     2     3     1     2
 0.0000118397     2     3     1     4
 -0.0000089576     2     3     1    10
 0.0000008131     2     3     3     1
 -0.5504705398     2     3     3     2
 0.0001565467     2     3     3     4
 -0.0000010391     2     3     3     5
 -0.0016560929     2     3     3    10
 -0.3580217484     2     3     4     1
 -0.0004543557     2     3     4     2
 -0.0000002056     2     3     4     4
 0.0025282006     2     3     4     5
 0.0000014944     2     3     4    10
 -0.0000000535     2     3     5     1
 -0.0078607502     2     3     5     2
 0.0014140881     2     3     5     4
 -0.0000130000     2     3     5     5
 -0.0199042613     2     3     5    10
 -0.0000134870     2     3     6     6
 -0.0195124332     2     3     6     8
 -0.0015377672     2     3     6     9
 -0.0000134870     2     3     7     7
 -0.0015377672     2     3     7     8
 0.0195124332     2     3     7     9
 -0.0180683049     2     3     8     6
 -0.0014239559     2     3     8     7
 -0.0000112770     2     3     8     8
 -0.0014239559     2     3     9     6
 0.0180683049     2     3     9     7
 -0.0000112770     2     3     9     9
 -0.0268845664     2     3    10     1
 -0.0000340867     2     3    10     2
 0.0000008253     2     3    10     4
 -0.0175483574     2     3    10     5
 -0.0000118563     2     3    10    10
 -0.0001510768     2     4     1     1
 -0.0000000960     2     4     1     2
 -0.0000118397     2     4     1     3
 -0.0000073716     2     4     1     5
 -0.0000000001     2     4     1    10
 -0.3580338972     2     4     3     1
 -0.0004543557     2     4     3     2
 -0.0001565467     2     4     3     3
 0.0011025798     2     4     3     5
 0.0000006419     2     4     3    10
 -0.0000007908     2     4     4     1
 -0.5568928847     2     4     4     2
 0.0000002056     2     4     4     3
 0.0000000962     2     4     4     5
 0.0001909183     2     4     4    10
 0.0511472643     2     4     5     1
 0.0000649098     2     4     5     2
 -0.0014140881     2     4     5     3
 -0.0201744308     2     4     5     5
 -0.0000123585     2     4     5    10
 -0.0214471745     2     4     6     6
 -0.0000123175     2     4     6     8
 -0.0000009708     2     4     6     9
 -0.0214471745     2     4     7     7
 -0.0000009708     2     4     7     8
 0.0000123175     2     4     7     9
 -0.0000117492     2     4     8     6
 -0.0000009260     2     4     8     7
 -0.0184686616     2     4     8     8
 -0.0000000001     2     4     8     9
 -0.0000009260     2     4     9     6
 0.0000117492     2     4     9     7
 -0.0000000001     2     4     9     8
 -0.0184686616     2     4     9     9
 -0.0000000269     2     4    10     1
 -0.0253187273     2     4    10     2
 -0.0000008253     2     4    10     3
 -0.0000115612     2     4    10     5
 -0.0198428306     2     4    10    10
 0.0000016790     2     5     1     1
 -0.0026466387     2     5     1     2
 0.0000073716     2     5     1     4
 -0.0000628137     2     5     1    10
 -0.0000000535     2     5     3     1
 -0.0078607502     2     5     3     2
 0.0000010391     2     5     3     3
 -0.0011025798     2     5     3     4
 -0.0016231959     2     5     3    10
 0.0511548848     2     5     4     1
 0.0000649098     2     5     4     2
 -0.0025282006     2     5     4     3
 -0.0000000962     2     5     4     4
 -0.0000002423     2     5     4    10
 0.0000001380     2     5     5     1
 -0.5502510882     2     5     5     2
 0.0000130000     2     5     5     3
 0.0201744308     2     5     5     4
 0.0000448386     2     5     5    10
 0.0000013926     2     5     6     6
 -0.0003438889     2     5     6     8
 -0.0000271018     2     5     6     9
 0.0000013926     2     5     7     7
 -0.0000271018     2     5     7     8
 0.0003438889     2     5     7     9
 -0.0006206104     2     5     8     6
 -0.0000489101     2     5     8     7
 0.0000011297     2     5     8     8
 -0.0000489100     2     5     9     6
 0.0006206104     2     5     9     7
 0.0000011297     2     5     9     9
 -0.3171138939     2     5    10     1
 -0.0004024109     2     5    10     2
 0.0175483574     2     5    10     3
 0.0000115612     2     5    10     4
 0.0000031883     2     5    10    10
 -0.0000306200     2     6     1     8
 -0.0000024132     2     6     1     9
 -0.0007811381     2     6     3     8
 -0.0000615612     2     6     3     9
 -0.0000001028     2     6     4     8
 -0.0000000081     2     6     4     9
 -0.0000756781     2     6     5     8
 -0.0000059641     2     6     5     9
 0.0000001372     2     6     6     1
 -0.5558604209     2     6     6     2
 0.0000134870     2     6     6     3
 0.0214471745     2     6     6     4
 -0.0000013926     2     6     6     5
 0.0010280621     2     6     6    10
 -0.3258507381     2     6     8     1
 -0.0004135232     2     6     8     2
 0.0180683049     2     6     8     3
 0.0000117492     2     6     8     4
 0.0006206104     2     6     8     5
 0.0000021462     2     6     8    10
 -0.0256801681     2     6     9     1
 -0.0000325896     2     6     9     2
 0.0014239559     2     6     9     3
 0.0000009260     2     6     9     4
 0.0000489100     2     6     9     5
 0.0000001691     2     6     9    10
 0.0000000652     2     6    10     8
 0.0000000051     2     6    10     9
 -0.0000024132     2     7     1     8
 0.0000306200     2     7     1     9
 -0.0000615612     2     7     3     8
 0.0007811381     2     7     3     9
 -0.0000000081     2     7     4     8
 0.0000001028     2     7     4     9
 -0.0000059642     2     7     5     8
 0.0000756781     2     7     5     9
 0.0000001372     2     7     7     1
 -0.5558604209     2     7     7     2
 0.0000134870     2     7     7     3
 0.0214471745     2     7     7     4
 -0.0000013926     2     7     7     5
 0.0010280621     2     7     7    10
 -0.0256801681     2     7     8     1
 -0.0000325896     2     7     8     2
 0.0014239559     2     7     8     3
 0.0000009260     2     7     8     4
 0.0000489101     2     7     8     5
 0.0000001691     2     7     8    10
 0.3258507381     2     7     9     1
 0.0004135232     2     7     9     2
 -0.0180683049     2     7     9     3
 -0.0000117492     2     7     9     4
 -0.0006206104     2     7     9     5
 -0.0000021462     2     7     9    10
 0.0000000051     2     7    10     8
 -0.0000000652     2     7    10     9
 0.0000306200     2     8     1     6
 0.0000024132     2     8     1     7
 0.0007811381     2     8     3     6
 0.0000615612     2     8     3     7
 0.0000001028     2     8     4     6
 0.0000000081     2     8     4     7
 0.0000756781     2     8     5     6
 0.0000059642     2     8     5     7
 -0.3258213342     2     8     6     1
 -0.0004135232     2     8     6     2
 0.0195124332     2     8     6     3
 0.0000123175     2     8     6     4
 0.0003438889     2     8     6     5
 0.0000022307     2     8     6    10
 -0.0256778508     2     8     7     1
 -0.0000325896     2     8     7     2
 0.0015377672     2     8     7     3
 0.0000009708     2     8     7     4
 0.0000271018     2     8     7     5
 0.0000001758     2     8     7    10
 -0.0000001038     2     8     8     1
 -0.5319534880     2     8     8     2
 0.0000112770     2     8     8     3
 0.0184686616     2     8     8     4
 -0.0000011297     2     8     8     5
 0.0012470080     2     8     8    10
 0.0000000001     2     8     9     4
 -0.0000000652     2     8    10     6
 -0.0000000051     2     8    10     7
 0.0000024132     2     9     1     6
 -0.0000306200     2     9     1     7
 0.0000615612     2     9     3     6
 -0.0007811381     2     9     3     7
 0.0000000081     2     9     4     6
 -0.0000001028     2     9     4     7
 0.0000059641     2     9     5     6
 -0.0000756781     2     9     5     7
 -0.0256778508     2     9     6     1
 -0.0000325896     2     9     6     2
 0.0015377672     2     9     6     3
 0.0000009708     2     9     6     4
 0.0000271018     2     9     6     5
 0.0000001758     2     9     6    10
 0.3258213342     2     9     7     1
 0.0004135232     2     9     7     2
 -0.0195124332     2     9     7     3
 -0.0000123175     2     9     7     4
 -0.0003438889     2     9     7     5
 -0.0000022307     2     9     7    10
 0.0000000001     2     9     8     4
 -0.0000001038     2     9     9     1
 -0.5319534880     2     9     9     2
 0.0000112770     2     9     9     3
 0.0184686616     2     9     9     4
 -0.0000011297     2     9     9     5
 0.0012470080     2     9     9    10
 -0.0000000051     2     9    10     6
 0.0000000652     2     9    10     7
 0.0023492992     2    10     1     1
 0.0000014906     2    10     1     2
 0.0000089576     2    10     1     3
 0.0000000001     2    10     1     4
 0.0000628137     2    10     1     5
 -0.0268755201     2    10     3     1
 -0.0000340867     2    10     3     2
 0.0016560929     2    10     3     3
 -0.0000006419     2    10     3     4
 0.0016231959     2    10     3     5
 -0.0000000269     2    10     4     1
 -0.0253187273     2    10     4     2
 -0.0000014944     2    10     4     3
 -0.0001909183     2    10     4     4
 0.0000002423     2    10     4     5
 -0.3170513302     2    10     5     1
 -0.0004024109     2    10     5     2
 0.0199042613     2    10     5     3
 0.0000123585     2    10     5     4
 -0.0000448386     2    10     5     5
 -0.0010280621     2    10     6     6
 -0.0000022307     2    10     6     8
 -0.0000001758     2    10     6     9
 -0.0010280621     2    10     7     7
 -0.0000001758     2    10     7     8
 0.0000022307     2    10     7     9
 -0.0000021462     2    10     8     6
 -0.0000001691     2    10     8     7
 -0.0012470080     2    10     8     8
 -0.0000001691     2    10     9     6
 0.0000021462     2    10     9     7
 -0.0012470080     2    10     9     9
 -0.0000000920     2    10    10     1
 -0.5533359123     2    10    10     2
 0.0000118563     2    10    10     3
 0.0198428306     2    10    10     4
 -0.0000031883     2    10    10     5
 -0.0000000784     3     1     1     2
 -0.5504824085     3     1     1     3
 0.0004543956     3     1     1     4
 -0.0078635624     3     1     1     5
 0.0000341406     3     1     1    10
 0.0001233346     3     1     2     2
 0.0000008131     3     1     2     3
 -0.3580338972     3     1     2     4
 -0.0000000535     3     1     2     5
 -0.0268755201     3     1     2    10
 -0.0000118397     3     1     4     2
 -0.0000000989     3     1     4     3
 -0.0003242472     3     1     4     4
 -0.0000008976     3     1     4     5
 0.0013001409     3     1     4    10
 -0.0016315807     3     1     5     3
 -0.0000016067     3     1     5     4
 -0.0205346024     3     1     5     5
 0.0000111577     3     1     5    10
 -0.0213050264     3     1     6     6
 0.0000114873     3     1     6     8
 0.0000009053     3     1     6     9
 -0.0213050264     3     1     7     7
 0.0000009053     3     1     7     8
 -0.0000114873     3     1     7     9
 0.0000124045     3     1     8     6
 0.0000009776     3     1     8     7
 -0.0177978728     3     1     8     8
 -0.0000000001     3     1     8     9
 0.0000009776     3     1     9     6
 -0.0000124045     3     1     9     7
 -0.0000000001     3     1     9     8
 -0.0177978728     3     1     9     9
 0.0000089576     3     1    10     2
 0.0000010468     3     1    10     3
 0.0023581458     3     1    10     4
 0.0000126537     3     1    10     5
 -0.0187161290     3     1    10    10
 0.0000000784     3     2     1     1
 0.0000008131     3     2     1     3
 -0.3580217484     3     2     1     4
 -0.0000000535     3     2     1     5
 -0.0268845664     3     2     1    10
 -0.0001233346     3     2     2     1
 -0.5504705398     3     2     2     3
 -0.0004543557     3     2     2     4
 -0.0078607502     3     2     2     5
 -0.0000340867     3     2     2    10
 0.0000118397     3     2     4     1
 0.0001565467     3     2     4     3
 -0.0000002056     3     2     4     4
 0.0014140881     3     2     4     5
 0.0000008253     3     2     4    10
 -0.0000010391     3     2     5     3
 0.0025282006     3     2     5     4
 -0.0000130000     3     2     5     5
 -0.0175483574     3     2     5    10
 -0.0000134870     3     2     6     6
 -0.0180683049     3     2     6     8
 -0.0014239559     3     2     6     9
 -0.0000134870     3     2     7     7
 -0.0014239559     3     2     7     8
 0.0180683049     3     2     7     9
 -0.0195124332     3     2     8     6
 -0.0015377672     3     2     8     7
 -0.0000112770     3     2     8     8
 -0.0015377672     3     2     9     6
 0.0195124332     3     2     9     7
 -0.0000112770     3     2     9     9
 -0.0000089576     3     2    10     1
 -0.0016560929     3     2    10     3
 0.0000014944     3     2    10     4
 -0.0199042613     3     2    10     5
 -0.0000118563     3     2    10    10
 0.5504824085     3     3     1     1
 -0.0000008131     3     3     1     2
 0.0000000989     3     3     1     4
 0.0016315807     3     3     1     5
 -0.0000010468     3     3     1    10
 -0.0000008131     3     3     2     1
 0.5504705398     3     3     2     2
 -0.0001565467     3     3     2     4
 0.0000010391     3     3     2     5
 0.0016560929     3     3     2    10
 0.0000000989     3     3     4     1
 -0.0001565467     3     3     4     2
 0.1929373810     3     3     4     4
 0.0000000500     3     3     4     5
 0.0120214260     3     3     4    10
 0.0016315807     3     3     5     1
 0.0000010391     3     3     5     2
 0.0000000500     3     3     5     4
 0.3574388788     3     3     5     5
 -0.0000003496     3     3     5    10
 0.3594543638     3     3     6     6
 -0.0000003602     3     3     6     8
 -0.0000000284     3     3     6     9
 0.3594543638     3     3     7     7
 -0.0000000284     3     3     7     8
 0.0000003602     3     3     7     9
 -0.0000003602     3     3     8     6
 -0.0000000284     3     3     8     7
 0.3597414512     3     3     8     8
 -0.0000000001     3     3     8     9
 -0.0000000284     3     3     9     6