&FCI NORB= 10,NELEC= 14,MS2=0,
 ORBSYM=1,1,1,1,1,1,1,1,1,1
 ISYM=1,
&END
 0.2645905641     1     1     2     2
 0.0000000005     1     1     2     3
 0.0007127324     1     1     2     4
 -0.0000000042     1     1     2     5
 -0.0044875492     1     1     2    10
 0.0000000005     1     1     3     2
 0.5867512489     1     1     3     3
 0.0000005685     1     1     3     4
 -0.0189146419     1     1     3     5
 0.0000001344     1     1     3    10
 0.0007127324     1     1     4     2
 0.0000005685     1     1     4     3
 0.5897135866     1     1     4     4
 0.0000002110     1     1     4     5
 0.0453975954     1     1     4    10
 -0.0000000042     1     1     5     2
 -0.0189146419     1     1     5     3
 0.0000002110     1     1     5     4
 0.5865679207     1     1     5     5
 -0.0000004890     1     1     5    10
 0.5755124627     1     1     6     6
 0.0000000001     1     1     6     7
 0.0000002194     1     1     6     8
 -0.0000004755     1     1     6     9
 0.0000000001     1     1     7     6
 0.5755124628     1     1     7     7
 0.0000004756     1     1     7     8
 0.0000002194     1     1     7     9
 0.0000002194     1     1     8     6
 0.0000004756     1     1     8     7
 0.5648058000     1     1     8     8
 -0.0000004755     1     1     9     6
 0.0000002194     1     1     9     7
 0.5648057999     1     1     9     9
 -0.0044875492     1     1    10     2
 0.0000001344     1     1    10     3
 0.0453975954     1     1    10     4
 -0.0000004890     1     1    10     5
 0.6004819156     1     1    10    10
 -0.2645905641     1     2     2     1
 0.0005884055     1     2     2     3
 -0.0000000007     1     2     2     4
 -0.0047252189     1     2     2     5
 0.0000000041     1     2     2    10
 -0.0000000005     1     2     3     1
 -0.0000000019     1     2     3     3
 0.3162190040     1     2     3     4
 -0.0000000011     1     2     3     5
 0.0736914594     1     2     3    10
 -0.0007127324     1     2     4     1
 0.3162326445     1     2     4     3
 -0.0000000040     1     2     4     4
 0.1169413335     1     2     4     5
 0.0000000010     1     2     4    10
 0.0000000042     1     2     5     1
 -0.0000000011     1     2     5     3
 0.1169721469     1     2     5     4
 0.0000000007     1     2     5     5
 -0.2665205732     1     2     5    10
 0.0000000014     1     2     6     6
 0.1204266560     1     2     6     8
 -0.2610487271     1     2     6     9
 0.0000000014     1     2     7     7
 0.2610487274     1     2     7     8
 0.1204266559     1     2     7     9
 0.1203941337     1     2     8     6
 0.2609782288     1     2     8     7
 -0.0000000002     1     2     8     8
 -0.2609782286     1     2     9     6
 0.1203941336     1     2     9     7
 -0.0000000002     1     2     9     9
 0.0044875492     1     2    10     1
 0.0736666211     1     2    10     3
 0.0000000010     1     2    10     4
 -0.2663639516     1     2    10     5
 -0.0000000001     1     2    10    10
 -0.0000000005     1     3     2     1
 -0.0005884055     1     3     2     2
 -0.0000124986     1     3     2     4
 0.0000245596     1     3     2    10
 -0.5867512489     1     3     3     1
 0.0000000019     1     3     3     2
 -0.0000000009     1     3     3     4
 -0.0045662805     1     3     3     5
 0.0000000040     1     3     3    10
 -0.0000005685     1     3     4     1
 -0.3162326445     1     3     4     2
 0.0010052734     1     3     4     4
 0.0000000047     1     3     4     5
 -0.0047996770     1     3     4    10
 0.0189146419     1     3     5     1
 0.0000000011     1     3     5     2
 0.0000000049     1     3     5     4
 0.0203648081     1     3     5     5
 -0.0000000186     1     3     5    10
 0.0197859433     1     3     6     6
 0.0000000077     1     3     6     8
 -0.0000000165     1     3     6     9
 0.0197859433     1     3     7     7
 0.0000000165     1     3     7     8
 0.0000000076     1     3     7     9
 0.0000000067     1     3     8     6
 0.0000000146     1     3     8     7
 0.0176622673     1     3     8     8
 -0.0000000146     1     3     9     6
 0.0000000067     1     3     9     7
 0.0176622671     1     3     9     9
 -0.0000001344     1     3    10     1
 -0.0736666211     1     3    10     2
 -0.0036658799     1     3    10     4
 -0.0000000149     1     3    10     5
 0.0179829010     1     3    10    10
 -0.0007127324     1     4     2     1
 0.0000000007     1     4     2     2
 0.0000124986     1     4     2     3
 -0.0000301609     1     4     2     5
 -0.0000005685     1     4     3     1
 -0.3162190040     1     4     3     2
 0.0000000009     1     4     3     3
 -0.0000000002     1     4     3     5
 -0.0008788156     1     4     3    10
 -0.5897135866     1     4     4     1
 0.0000000040     1     4     4     2
 -0.0010052734     1     4     4     3
 0.0012643048     1     4     4     5
 -0.0000000011     1     4     4    10
 -0.0000002110     1     4     5     1
 -0.1169721469     1     4     5     2
 -0.0000000049     1     4     5     3
 0.0000000181     1     4     5     5
 -0.0194431533     1     4     5    10
 0.0000000190     1     4     6     6
 0.0076539805     1     4     6     8
 -0.0165915250     1     4     6     9
 0.0000000190     1     4     7     7
 0.0165915250     1     4     7     8
 0.0076539805     1     4     7     9
 0.0073322679     1     4     8     6
 0.0158941490     1     4     8     7
 0.0000000182     1     4     8     8
 -0.0158941489     1     4     9     6
 0.0073322679     1     4     9     7
 0.0000000181     1     4     9     9
 -0.0453975954     1     4    10     1
 -0.0000000010     1     4    10     2
 0.0036658799     1     4    10     3
 -0.0167356669     1     4    10     5
 0.0000000186     1     4    10    10
 0.0000000042     1     5     2     1
 0.0047252189     1     5     2     2
 0.0000301609     1     5     2     4
 -0.0001589970     1     5     2    10
 0.0189146419     1     5     3     1
 0.0000000011     1     5     3     2
 0.0045662805     1     5     3     3
 0.0000000002     1     5     3     4
 -0.0000000026     1     5     3    10
 -0.0000002110     1     5     4     1
 -0.1169413335     1     5     4     2
 -0.0000000047     1     5     4     3
 -0.0012643048     1     5     4     4
 -0.0014942227     1     5     4    10
 -0.5865679207     1     5     5     1
 -0.0000000007     1     5     5     2
 -0.0203648081     1     5     5     3
 -0.0000000181     1     5     5     4
 -0.0000000020     1     5     5    10
 0.0051114320     1     5     6     6
 0.0000000002     1     5     6     8
 -0.0000000005     1     5     6     9
 0.0051114321     1     5     7     7
 0.0000000005     1     5     7     8
 0.0000000002     1     5     7     9
 0.0000000004     1     5     8     6
 0.0000000008     1     5     8     7
 0.0043025971     1     5     8     8
 -0.0000000008     1     5     9     6
 0.0000000004     1     5     9     7
 0.0043025971     1     5     9     9
 0.0000004890     1     5    10     1
 0.2663639516     1     5    10     2
 0.0000000149     1     5    10     3
 0.0167356669     1     5    10     4
 0.0106236618     1     5    10    10
 0.0000319968     1     6     2     8
 -0.0000693595     1     6     2     9
 0.0000000006     1     6     3     8
 -0.0000000012     1     6     3     9
 -0.0000786241     1     6     4     8
 0.0001704333     1     6     4     9
 -0.0000000003     1     6     5     8
 0.0000000005     1     6     5     9
 -0.5755124627     1     6     6     1
 -0.0000000014     1     6     6     2
 -0.0197859433     1     6     6     3
 -0.0000000190     1     6     6     4
 -0.0051114320     1     6     6     5
 -0.0000000023     1     6     6    10
 -0.0000000001     1     6     7     1
 -0.0000002194     1     6     8     1
 -0.1203941337     1     6     8     2
 -0.0000000067     1     6     8     3
 -0.0073322679     1     6     8     4
 -0.0000000004     1     6     8     5
 -0.0028789234     1     6     8    10
 0.0000004755     1     6     9     1
 0.2609782286     1     6     9     2
 0.0000000146     1     6     9     3
 0.0158941489     1     6     9     4
 0.0000000008     1     6     9     5
 0.0062406390     1     6     9    10
 -0.0000516310     1     6    10     8
 0.0001119204     1     6    10     9
 0.0000693595     1     7     2     8
 0.0000319968     1     7     2     9
 0.0000000012     1     7     3     8
 0.0000000006     1     7     3     9
 -0.0001704333     1     7     4     8
 -0.0000786241     1     7     4     9
 -0.0000000005     1     7     5     8
 -0.0000000003     1     7     5     9
 -0.0000000001     1     7     6     1
 -0.5755124628     1     7     7     1
 -0.0000000014     1     7     7     2
 -0.0197859433     1     7     7     3
 -0.0000000190     1     7     7     4
 -0.0051114321     1     7     7     5
 -0.0000000023     1     7     7    10
 -0.0000004756     1     7     8     1
 -0.2609782288     1     7     8     2
 -0.0000000146     1     7     8     3
 -0.0158941490     1     7     8     4
 -0.0000000008     1     7     8     5
 -0.0062406390     1     7     8    10
 -0.0000002194     1     7     9     1
 -0.1203941336     1     7     9     2
 -0.0000000067     1     7     9     3
 -0.0073322679     1     7     9     4
 -0.0000000004     1     7     9     5
 -0.0028789234     1     7     9    10
 -0.0001119204     1     7    10     8
 -0.0000516310     1     7    10     9
 -0.0000319968     1     8     2     6
 -0.0000693595     1     8     2     7
 -0.0000000006     1     8     3     6
 -0.0000000012     1     8     3     7
 0.0000786241     1     8     4     6
 0.0001704333     1     8     4     7
 0.0000000003     1     8     5     6
 0.0000000005     1     8     5     7
 -0.0000002194     1     8     6     1
 -0.1204266560     1     8     6     2
 -0.0000000077     1     8     6     3
 -0.0076539805     1     8     6     4
 -0.0000000002     1     8     6     5
 -0.0029564392     1     8     6    10
 -0.0000004756     1     8     7     1
 -0.2610487274     1     8     7     2
 -0.0000000165     1     8     7     3
 -0.0165915250     1     8     7     4
 -0.0000000005     1     8     7     5
 -0.0064086698     1     8     7    10
 -0.5648058000     1     8     8     1
 0.0000000002     1     8     8     2
 -0.0176622673     1     8     8     3
 -0.0000000182     1     8     8     4
 -0.0043025971     1     8     8     5
 -0.0000000035     1     8     8    10
 0.0000516310     1     8    10     6
 0.0001119204     1     8    10     7
 0.0000693595     1     9     2     6
 -0.0000319968     1     9     2     7
 0.0000000012     1     9     3     6
 -0.0000000006     1     9     3     7
 -0.0001704333     1     9     4     6
 0.0000786241     1     9     4     7
 -0.0000000005     1     9     5     6
 0.0000000003     1     9     5     7
 0.0000004755     1     9     6     1
 0.2610487271     1     9     6     2
 0.0000000165     1     9     6     3
 0.0165915250     1     9     6     4
 0.0000000005     1     9     6     5
 0.0064086697     1     9     6    10
 -0.0000002194     1     9     7     1
 -0.1204266559     1     9     7     2
 -0.0000000076     1     9     7     3
 -0.0076539805     1     9     7     4
 -0.0000000002     1     9     7     5
 -0.0029564392     1     9     7    10
 -0.5648057999     1     9     9     1
 0.0000000002     1     9     9     2
 -0.0176622671     1     9     9     3
 -0.0000000181     1     9     9     4
 -0.0043025971     1     9     9     5
 -0.0000000035     1     9     9    10
 -0.0001119204     1     9    10     6
 0.0000516310     1     9    10     7
 0.0044875492     1    10     2     1
 -0.0000000041     1    10     2     2
 -0.0000245596     1    10     2     3
 0.0001589970     1    10     2     5
 -0.0000001344     1    10     3     1
 -0.0736914594     1    10     3     2
 -0.0000000040     1    10     3     3
 0.0008788156     1    10     3     4
 0.0000000026     1    10     3     5
 -0.0453975954     1    10     4     1
 -0.0000000010     1    10     4     2
 0.0047996770     1    10     4     3
 0.0000000011     1    10     4     4
 0.0014942227     1    10     4     5
 0.0000004890     1    10     5     1
 0.2665205732     1    10     5     2
 0.0000000186     1    10     5     3
 0.0194431533     1    10     5     4
 0.0000000020     1    10     5     5
 0.0000000023     1    10     6     6
 0.0029564392     1    10     6     8
 -0.0064086697     1    10     6     9
 0.0000000023     1    10     7     7
 0.0064086698     1    10     7     8
 0.0029564392     1    10     7     9
 0.0028789234     1    10     8     6
 0.0062406390     1    10     8     7
 0.0000000035     1    10     8     8
 -0.0062406390     1    10     9     6
 0.0028789234     1    10     9     7
 0.0000000035     1    10     9     9
 -0.6004819156     1    10    10     1
 0.0000000001     1    10    10     2
 -0.0179829010     1    10    10     3
 -0.0000000186     1    10    10     4
 -0.0106236618     1    10    10     5
 -0.2645905641     2     1     1     2
 -0.0000000005     2     1     1     3
 -0.0007127324     2     1     1     4
 0.0000000042     2     1     1     5
 0.0044875492     2     1     1    10
 0.0005884055     2     1     3     2
 -0.0000000019     2     1     3     3
 0.3162326445     2     1     3     4
 -0.0000000011     2     1     3     5
 0.0736666211     2     1     3    10
 -0.0000000007     2     1     4     2
 0.3162190040     2     1     4     3
 -0.0000000040     2     1     4     4
 0.1169721469     2     1     4     5
 0.0000000010     2     1     4    10
 -0.0047252189     2     1     5     2
 -0.0000000011     2     1     5     3
 0.1169413335     2     1     5     4
 0.0000000007     2     1     5     5
 -0.2663639516     2     1     5    10
 0.0000000014     2     1     6     6
 0.1203941337     2     1     6     8
 -0.2609782286     2     1     6     9
 0.0000000014     2     1     7     7
 0.2609782288     2     1     7     8
 0.1203941336     2     1     7     9
 0.1204266560     2     1     8     6
 0.2610487274     2     1     8     7
 -0.0000000002     2     1     8     8
 -0.2610487271     2     1     9     6
 0.1204266559     2     1     9     7
 -0.0000000002     2     1     9     9
 0.0000000041     2     1    10     2
 0.0736914594     2     1    10     3
 0.0000000010     2     1    10     4
 -0.2665205732     2     1    10     5
 -0.0000000001     2     1    10    10
 0.2645905641     2     2     1     1
 -0.0005884055     2     2     1     3
 0.0000000007     2     2     1     4
 0.0047252189     2     2     1     5
 -0.0000000041     2     2     1    10
 -0.0005884055     2     2     3     1
 0.5867400271     2     2     3     3
 -0.0000005761     2     2     3     4
 -0.0189227414     2     2     3     5
 -0.0000001322     2     2     3    10
 0.0000000007     2     2     4     1
 -0.0000005761     2     2     4     3
 0.5897189138     2     2     4     4
 -0.0000002124     2     2     4     5
 0.0454112685     2     2     4    10
 0.0047252189     2     2     5     1
 -0.0189227414     2     2     5     3
 -0.0000002124     2     2     5     4
 0.5867347154     2     2     5     5
 0.0000004755     2     2     5    10
 0.5755993859     2     2     6     6
 0.0000000001     2     2     6     7
 -0.0000002164     2     2     6     8
 0.0000004694     2     2     6     9
 0.0000000001     2     2     7     6
 0.5755993861     2     2     7     7
 -0.0000004693     2     2     7     8
 -0.0000002165     2     2     7     9
 -0.0000002164     2     2     8     6
 -0.0000004693     2     2     8     7
 0.5647466810     2     2     8     8
 0.0000004694     2     2     9     6
 -0.0000002165     2     2     9     7
 0.5647466809     2     2     9     9
 -0.0000000041     2     2    10     1
 -0.0000001322     2     2    10     3
 0.0454112685     2     2    10     4
 0.0000004755     2     2    10     5
 0.6003289854     2     2    10    10
 0.0000000005     2     3     1     1
 0.0005884055     2     3     1     2
 0.0000124986     2     3     1     4
 -0.0000245596     2     3     1    10
 0.0000000019     2     3     3     1
 -0.5867400271     2     3     3     2
 -0.0006032178     2     3     3     4
 0.0000000035     2     3     3     5
 0.0047816875     2     3     3    10
 -0.3162190040     2     3     4     1
 0.0000005761     2     3     4     2
 -0.0000000011     2     3     4     4
 0.0050907882     2     3     4     5
 0.0000000044     2     3     4    10
 0.0000000011     2     3     5     1
 0.0189227414     2     3     5     2
 0.0047020719     2     3     5     4
 -0.0000000180     2     3     5     5
 -0.0199999125     2     3     5    10
 -0.0000000172     2     3     6     6
 0.0079762468     2     3     6     8
 -0.0172901011     2     3     6     9
 -0.0000000172     2     3     7     7
 0.0172901012     2     3     7     8
 0.0079762468     2     3     7     9
 0.0070175458     2     3     8     6
 0.0152119264     2     3     8     7
 -0.0000000154     2     3     8     8
 -0.0152119262     2     3     9     6
 0.0070175458     2     3     9     7
 -0.0000000155     2     3     9     9
 -0.0736914594     2     3    10     1
 0.0000001322     2     3    10     2
 0.0000000038     2     3    10     4
 -0.0159856801     2     3    10     5
 -0.0000000168     2     3    10    10
 0.0007127324     2     4     1     1
 -0.0000000007     2     4     1     2
 -0.0000124986     2     4     1     3
 0.0000301609     2     4     1     5
 -0.3162326445     2     4     3     1
 0.0000005761     2     4     3     2
 0.0006032178     2     4     3     3
 0.0003502854     2     4     3     5
 0.0000000005     2     4     3    10
 0.0000000040     2     4     4     1
 -0.5897189138     2     4     4     2
 0.0000000011     2     4     4     3
 -0.0000000011     2     4     4     5
 -0.0015080692     2     4     4    10
 -0.1169413335     2     4     5     1
 0.0000002124     2     4     5     2
 -0.0047020719     2     4     5     3
 0.0196049034     2     4     5     5
 0.0000000168     2     4     5    10
 0.0202460874     2     4     6     6
 -0.0000000065     2     4     6     8
 0.0000000141     2     4     6     9
 0.0202460875     2     4     7     7
 -0.0000000141     2     4     7     8
 -0.0000000065     2     4     7     9
 -0.0000000062     2     4     8     6
 -0.0000000135     2     4     8     7
 0.0194031426     2     4     8     8
 0.0000000136     2     4     9     6
 -0.0000000062     2     4     9     7
 0.0194031425     2     4     9     9
 -0.0000000010     2     4    10     1
 -0.0454112685     2     4    10     2
 -0.0000000038     2     4    10     3
 0.0000000147     2     4    10     5
 0.0214152871     2     4    10    10
 -0.0000000042     2     5     1     1
 -0.0047252189     2     5     1     2
 -0.0000301609     2     5     1     4
 0.0001589970     2     5     1    10
 0.0000000011     2     5     3     1
 0.0189227414     2     5     3     2
 -0.0000000035     2     5     3     3
 -0.0003502854     2     5     3     4
 -0.0030768805     2     5     3    10
 -0.1169721469     2     5     4     1
 0.0000002124     2     5     4     2
 -0.0050907882     2     5     4     3
 0.0000000011     2     5     4     4
 0.0000000013     2     5     4    10
 -0.0000000007     2     5     5     1
 -0.5867347154     2     5     5     2
 0.0000000180     2     5     5     3
 -0.0196049034     2     5     5     4
 -0.0017629311     2     5     5    10
 -0.0000000046     2     5     6     6
 0.0001490979     2     5     6     8
 -0.0003231995     2     5     6     9
 -0.0000000046     2     5     7     7
 0.0003231995     2     5     7     8
 0.0001490979     2     5     7     9
 0.0003381366     2     5     8     6
 0.0007329783     2     5     8     7
 -0.0000000038     2     5     8     8
 -0.0007329783     2     5     9     6
 0.0003381366     2     5     9     7
 -0.0000000038     2     5     9     9
 0.2665205732     2     5    10     1
 -0.0000004755     2     5    10     2
 0.0159856801     2     5    10     3
 -0.0000000147     2     5    10     4
 -0.0000000094     2     5    10    10
 -0.0000319968     2     6     1     8
 0.0000693595     2     6     1     9
 0.0006301618     2     6     3     8
 -0.0013660011     2     6     3     9
 -0.0000000002     2     6     4     9
 -0.0002754917     2     6     5     8
 0.0005971830     2     6     5     9
 -0.0000000014     2     6     6     1
 -0.5755993859     2     6     6     2
 0.0000000172     2     6     6     3
 -0.0202460874     2     6     6     4
 0.0000000046     2     6     6     5
 -0.0024106807     2     6     6    10
 -0.0000000001     2     6     7     2
 -0.1204266560     2     6     8     1
 0.0000002164     2     6     8     2
 -0.0070175458     2     6     8     3
 0.0000000062     2     6     8     4
 -0.0003381366     2     6     8     5
 0.0000000025     2     6     8    10
 0.2610487271     2     6     9     1
 -0.0000004694     2     6     9     2
 0.0152119262     2     6     9     3
 -0.0000000136     2     6     9     4
 0.0007329783     2     6     9     5
 -0.0000000054     2     6     9    10
 -0.0000000001     2     6    10     9
 -0.0000693595     2     7     1     8
 -0.0000319968     2     7     1     9
 0.0013660011     2     7     3     8
 0.0006301618     2     7     3     9
 0.0000000002     2     7     4     8
 -0.0005971830     2     7     5     8
 -0.0002754917     2     7     5     9
 -0.0000000001     2     7     6     2
 -0.0000000014     2     7     7     1
 -0.5755993861     2     7     7     2
 0.0000000172     2     7     7     3
 -0.0202460875     2     7     7     4
 0.0000000046     2     7     7     5
 -0.0024106807     2     7     7    10
 -0.2610487274     2     7     8     1
 0.0000004693     2     7     8     2
 -0.0152119264     2     7     8     3
 0.0000000135     2     7     8     4
 -0.0007329783     2     7     8     5
 0.0000000054     2     7     8    10
 -0.1204266559     2     7     9     1
 0.0000002165     2     7     9     2
 -0.0070175458     2     7     9     3
 0.0000000062     2     7     9     4
 -0.0003381366     2     7     9     5
 0.0000000025     2     7     9    10
 0.0000000001     2     7    10     8
 0.0000319968     2     8     1     6
 0.0000693595     2     8     1     7
 -0.0006301618     2     8     3     6
 -0.0013660011     2     8     3     7
 -0.0000000002     2     8     4     7
 0.0002754917     2     8     5     6
 0.0005971830     2     8     5     7
 -0.1203941337     2     8     6     1
 0.0000002164     2     8     6     2
 -0.0079762468     2     8     6     3
 0.0000000065     2     8     6     4
 -0.0001490979     2     8     6     5
 0.0000000026     2     8     6    10
 -0.2609782288     2     8     7     1
 0.0000004693     2     8     7     2
 -0.0172901012     2     8     7     3
 0.0000000141     2     8     7     4
 -0.0003231995     2     8     7     5
 0.0000000055     2     8     7    10
 0.0000000002     2     8     8     1
 -0.5647466810     2     8     8     2
 0.0000000154     2     8     8     3
 -0.0194031426     2     8     8     4
 0.0000000038     2     8     8     5
 -0.0037851692     2     8     8    10
 -0.0000000001     2     8    10     7
 -0.0000693595     2     9     1     6
 0.0000319968     2     9     1     7
 0.0013660011     2     9     3     6
 -0.0006301618     2     9     3     7
 0.0000000002     2     9     4     6
 -0.0005971830     2     9     5     6
 0.0002754917     2     9     5     7
 0.2609782286     2     9     6     1
 -0.0000004694     2     9     6     2
 0.0172901011     2     9     6     3
 -0.0000000141     2     9     6     4
 0.0003231995     2     9     6     5
 -0.0000000055     2     9     6    10
 -0.1203941336     2     9     7     1
 0.0000002165     2     9     7     2
 -0.0079762468     2     9     7     3
 0.0000000065     2     9     7     4
 -0.0001490979     2     9     7     5
 0.0000000026     2     9     7    10
 0.0000000002     2     9     9     1
 -0.5647466809     2     9     9     2
 0.0000000155     2     9     9     3
 -0.0194031425     2     9     9     4
 0.0000000038     2     9     9     5
 -0.0037851691     2     9     9    10
 0.0000000001     2     9    10     6
 -0.0044875492     2    10     1     1
 0.0000000041     2    10     1     2
 0.0000245596     2    10     1     3
 -0.0001589970     2    10     1     5
 -0.0736666211     2    10     3     1
 0.0000001322     2    10     3     2
 -0.0047816875     2    10     3     3
 -0.0000000005     2    10     3     4
 0.0030768805     2    10     3     5
 -0.0000000010     2    10     4     1
 -0.0454112685     2    10     4     2
 -0.0000000044     2    10     4     3
 0.0015080692     2    10     4     4
 -0.0000000013     2    10     4     5
 0.2663639516     2    10     5     1
 -0.0000004755     2    10     5     2
 0.0199999125     2    10     5     3
 -0.0000000168     2    10     5     4
 0.0017629311     2    10     5     5
 0.0024106807     2    10     6     6
 -0.0000000026     2    10     6     8
 0.0000000055     2    10     6     9
 0.0024106807     2    10     7     7
 -0.0000000055     2    10     7     8
 -0.0000000026     2    10     7     9
 -0.0000000025     2    10     8     6
 -0.0000000054     2    10     8     7
 0.0037851692     2    10     8     8
 0.0000000054     2    10     9     6
 -0.0000000025     2    10     9     7
 0.0037851691     2    10     9     9
 0.0000000001     2    10    10     1
 -0.6003289854     2    10    10     2
 0.0000000168     2    10    10     3
 -0.0214152871     2    10    10     4
 0.0000000094     2    10    10     5
 -0.0000000005     3     1     1     2
 -0.5867512489     3     1     1     3
 -0.0000005685     3     1     1     4
 0.0189146419     3     1     1     5
 -0.0000001344     3     1     1    10
 -0.0005884055     3     1     2     2
 0.0000000019     3     1     2     3
 -0.3162326445     3     1     2     4
 0.0000000011     3     1     2     5
 -0.0736666211     3     1     2    10
 -0.0000124986     3     1     4     2
 -0.0000000009     3     1     4     3
 0.0010052734     3     1     4     4
 0.0000000049     3     1     4     5
 -0.0036658799     3     1     4    10
 -0.0045662805     3     1     5     3
 0.0000000047     3     1     5     4
 0.0203648081     3     1     5     5
 -0.0000000149     3     1     5    10
 0.0197859433     3     1     6     6
 0.0000000067     3     1     6     8
 -0.0000000146     3     1     6     9
 0.0197859433     3     1     7     7
 0.0000000146     3     1     7     8
 0.0000000067     3     1     7     9
 0.0000000077     3     1     8     6
 0.0000000165     3     1     8     7
 0.0176622673     3     1     8     8
 -0.0000000165     3     1     9     6
 0.0000000076     3     1     9     7
 0.0176622671     3     1     9     9
 0.0000245596     3     1    10     2
 0.0000000040     3     1    10     3
 -0.0047996770     3     1    10     4
 -0.0000000186     3     1    10     5
 0.0179829010     3     1    10    10
 0.0000000005     3     2     1     1
 0.0000000019     3     2     1     3
 -0.3162190040     3     2     1     4
 0.0000000011     3     2     1     5
 -0.0736914594     3     2     1    10
 0.0005884055     3     2     2     1
 -0.5867400271     3     2     2     3
 0.0000005761     3     2     2     4
 0.0189227414     3     2     2     5
 0.0000001322     3     2     2    10
 0.0000124986     3     2     4     1
 -0.0006032178     3     2     4     3
 -0.0000000011     3     2     4     4
 0.0047020719     3     2     4     5
 0.0000000038     3     2     4    10
 0.0000000035     3     2     5     3
 0.0050907882     3     2     5     4
 -0.0000000180     3     2     5     5
 -0.0159856801     3     2     5    10
 -0.0000000172     3     2     6     6
 0.0070175458     3     2     6     8
 -0.0152119262     3     2     6     9
 -0.0000000172     3     2     7     7
 0.0152119264     3     2     7     8
 0.0070175458     3     2     7     9
 0.0079762468     3     2     8     6
 0.0172901012     3     2     8     7
 -0.0000000154     3     2     8     8
 -0.0172901011     3     2     9     6
 0.0079762468     3     2     9     7
 -0.0000000155     3     2     9     9
 -0.0000245596     3     2    10     1
 0.0047816875     3     2    10     3
 0.0000000044     3     2    10     4
 -0.0199999125     3     2    10     5
 -0.0000000168     3     2    10    10
 0.5867512489     3     3     1     1
 -0.0000000019     3     3     1     2
 0.0000000009     3     3     1     4
 0.0045662805     3     3     1     5
 -0.0000000040     3     3     1    10
 -0.0000000019     3     3     2     1
 0.5867400271     3     3     2     2
 0.0006032178     3     3     2     4
 -0.0000000035     3     3     2     5
 -0.0047816875     3     3     2    10
 0.0000000009     3     3     4     1
 0.0006032178     3     3     4     2
 0.2645469619     3     3     4     4
 0.0000000004     3     3     4     5
 0.0108485402     3     3     4    10
 0.0045662805     3     3     5     1
 -0.0000000035     3     3     5     2
 0.0000000004     3     3     5     4
 0.3899360153     3     3     5     5
 -0.0000000040     3     3     5    10
 0.3890141910     3     3     6     6
 0.0000000018     3     3     6     8
 -0.0000000038     3     3     6     9
 0.3890141910     3     3     7     7
 0.0000000039     3     3     7     8
 0.0000000018     3     3     7     9
 0.0000000018     3     3     8     6
 0.0000000039     3     3     8     7
 0.3965232977     3     3     8     8
 -0.0000000038     3     3     9     6
 0.0000000018     3     3     9     7
 0.3965232978     3     3     9     9
 -0.0000000040     3     3    10     1
 -0.0047816875     3     3    10     2
 0.0108485402     3     3    10     4
 -0.0000000040     3     3    10     5
 0.4145645420     3     3    10    10
 0.0000005685     3     4     1     1
 0.3162190040     3     4     1     2
 -0.0000000009     3     4     1     3
 0.0000000002     3     4     1     5
 0.0008788156     3     4     1    10
 0.3162326445     3     4     2     1
 -0.0000005761     3     4     2     2
 -0.0006032178     3     4     2     3