&FCI NORB= 10,NELEC= 14,MS2=0,
 ORBSYM=1,1,1,1,1,1,1,1,1,1
 ISYM=1,
&END
 0.1889678304     1     1     2     2
 0.0000000530     1     1     2     3
 -0.0001232479     1     1     2     4
 0.0000012212     1     1     2     5
 0.0021728217     1     1     2    10
 0.0000000530     1     1     3     2
 0.5472515447     1     1     3     3
 -0.0003574710     1     1     3     4
 0.0075282829     1     1     3     5
 -0.0000233121     1     1     3    10
 -0.0001232479     1     1     4     2
 -0.0003574710     1     1     4     3
 0.5530520743     1     1     4     4
 0.0000452924     1     1     4     5
 0.0232025384     1     1     4    10
 0.0000012212     1     1     5     2
 0.0075282829     1     1     5     3
 0.0000452924     1     1     5     4
 0.5475509201     1     1     5     5
 -0.0003186847     1     1     5    10
 0.5531216864     1     1     6     6
 -0.0000000005     1     1     6     7
 -0.0002260270     1     1     6     8
 0.0002358034     1     1     6     9
 -0.0000000005     1     1     7     6
 0.5531216882     1     1     7     7
 -0.0002358034     1     1     7     8
 -0.0002260270     1     1     7     9
 -0.0002260270     1     1     8     6
 -0.0002358034     1     1     8     7
 0.5281684455     1     1     8     8
 -0.0000000001     1     1     8     9
 0.0002358034     1     1     9     6
 -0.0002260270     1     1     9     7
 -0.0000000001     1     1     9     8
 0.5281684454     1     1     9     9
 0.0021728217     1     1    10     2
 -0.0000233121     1     1    10     3
 0.0232025384     1     1    10     4
 -0.0003186847     1     1    10     5
 0.5477614172     1     1    10    10
 -0.1889678304     1     2     2     1
 -0.0001069970     1     2     2     3
 -0.0000000610     1     2     2     4
 -0.0024715031     1     2     2     5
 0.0000010737     1     2     2    10
 -0.0000000530     1     2     3     1
 -0.0000006801     1     2     3     3
 0.3616420254     1     2     3     4
 0.0000000416     1     2     3     5
 0.0235684791     1     2     3    10
 0.0001232479     1     2     4     1
 0.3616544250     1     2     4     3
 0.0000006623     1     2     4     4
 -0.0458161324     1     2     4     5
 0.0000000204     1     2     4    10
 -0.0000012212     1     2     5     1
 0.0000000416     1     2     5     3
 -0.0458226173     1     2     5     4
 -0.0000000931     1     2     5     5
 0.3224539336     1     2     5    10
 -0.0000001080     1     2     6     6
 0.2286885876     1     2     6     8
 -0.2385800853     1     2     6     9
 -0.0000001080     1     2     7     7
 0.2385800853     1     2     7     8
 0.2286885879     1     2     7     9
 0.2286703724     1     2     8     6
 0.2385610823     1     2     8     7
 0.0000000762     1     2     8     8
 -0.2385610823     1     2     9     6
 0.2286703727     1     2     9     7
 0.0000000762     1     2     9     9
 -0.0021728217     1     2    10     1
 0.0235602776     1     2    10     3
 0.0000000204     1     2    10     4
 0.3223979108     1     2    10     5
 0.0000000705     1     2    10    10
 -0.0000000530     1     3     2     1
 0.0001069970     1     3     2     2
 -0.0000119809     1     3     2     4
 0.0000080880     1     3     2    10
 -0.5472515447     1     3     3     1
 0.0000006801     1     3     3     2
 -0.0000000739     1     3     3     4
 -0.0014572519     1     3     3     5
 0.0000007276     1     3     3    10
 0.0003574710     1     3     4     1
 -0.3616544250     1     3     4     2
 -0.0002974212     1     3     4     4
 -0.0000011518     1     3     4     5
 0.0021586015     1     3     4    10
 -0.0075282829     1     3     5     1
 -0.0000000416     1     3     5     2
 -0.0000006083     1     3     5     4
 -0.0206523830     1     3     5     5
 0.0000098592     1     3     5    10
 -0.0213807908     1     3     6     6
 0.0000000001     1     3     6     7
 0.0000067158     1     3     6     8
 -0.0000070063     1     3     6     9
 0.0000000001     1     3     7     6
 -0.0213807912     1     3     7     7
 0.0000070063     1     3     7     8
 0.0000067158     1     3     7     9
 0.0000062377     1     3     8     6
 0.0000065075     1     3     8     7
 -0.0177749218     1     3     8     8
 0.0000000001     1     3     8     9
 -0.0000065075     1     3     9     6
 0.0000062377     1     3     9     7
 0.0000000001     1     3     9     8
 -0.0177749218     1     3     9     9
 0.0000233121     1     3    10     1
 -0.0235602776     1     3    10     2
 0.0011613904     1     3    10     4
 0.0000087770     1     3    10     5
 -0.0186330815     1     3    10    10
 0.0001232479     1     4     2     1
 0.0000000610     1     4     2     2
 0.0000119809     1     4     2     3
 0.0000062983     1     4     2     5
 0.0003574710     1     4     3     1
 -0.3616420254     1     4     3     2
 0.0000000739     1     4     3     3
 -0.0000005392     1     4     3     5
 0.0009657466     1     4     3    10
 -0.5530520743     1     4     4     1
 -0.0000006623     1     4     4     2
 0.0002974212     1     4     4     3
 0.0000763481     1     4     4     5
 -0.0000000579     1     4     4    10
 -0.0000452924     1     4     5     1
 0.0458226173     1     4     5     2
 0.0000006083     1     4     5     3
 0.0000100259     1     4     5     5
 -0.0194814695     1     4     5    10
 0.0000106081     1     4     6     6
 -0.0134780405     1     4     6     8
 0.0140610078     1     4     6     9
 0.0000106081     1     4     7     7
 -0.0140610078     1     4     7     8
 -0.0134780402     1     4     7     9
 -0.0128548657     1     4     8     6
 -0.0134108788     1     4     8     7
 0.0000090553     1     4     8     8
 0.0134108789     1     4     9     6
 -0.0128548655     1     4     9     7
 0.0000090553     1     4     9     9
 -0.0232025384     1     4    10     1
 -0.0000000204     1     4    10     2
 -0.0011613904     1     4    10     3
 -0.0183177746     1     4    10     5
 0.0000096761     1     4    10    10
 -0.0000012212     1     5     2     1
 0.0024715031     1     5     2     2
 -0.0000062983     1     5     2     4
 0.0000562613     1     5     2    10
 -0.0075282829     1     5     3     1
 -0.0000000416     1     5     3     2
 0.0014572519     1     5     3     3
 0.0000005392     1     5     3     4
 0.0000007342     1     5     3    10
 -0.0000452924     1     5     4     1
 0.0458161324     1     5     4     2
 0.0000011518     1     5     4     3
 -0.0000763481     1     5     4     4
 -0.0003370115     1     5     4    10
 -0.5475509201     1     5     5     1
 0.0000000931     1     5     5     2
 0.0206523830     1     5     5     3
 -0.0000100259     1     5     5     4
 0.0000000265     1     5     5    10
 0.0019611171     1     5     6     6
 0.0000001328     1     5     6     8
 -0.0000001386     1     5     6     9
 0.0019611172     1     5     7     7
 0.0000001386     1     5     7     8
 0.0000001328     1     5     7     9
 0.0000002368     1     5     8     6
 0.0000002471     1     5     8     7
 0.0015912099     1     5     8     8
 -0.0000002471     1     5     9     6
 0.0000002368     1     5     9     7
 0.0015912099     1     5     9     9
 0.0003186847     1     5    10     1
 -0.3223979108     1     5    10     2
 -0.0000087770     1     5    10     3
 0.0183177746     1     5    10     4
 0.0045579402     1     5    10    10
 0.0000190755     1     6     2     8
 -0.0000199006     1     6     2     9
 0.0000002541     1     6     3     8
 -0.0000002650     1     6     3     9
 -0.0001285907     1     6     4     8
 0.0001341525     1     6     4     9
 0.0000000156     1     6     5     8
 -0.0000000163     1     6     5     9
 -0.5531216864     1     6     6     1
 0.0000001080     1     6     6     2
 0.0213807908     1     6     6     3
 -0.0000106081     1     6     6     4
 -0.0019611171     1     6     6     5
 -0.0000004409     1     6     6    10
 0.0000000005     1     6     7     1
 -0.0000000001     1     6     7     3
 0.0002260270     1     6     8     1
 -0.2286703724     1     6     8     2
 -0.0000062377     1     6     8     3
 0.0128548657     1     6     8     4
 -0.0000002368     1     6     8     5
 0.0021325144     1     6     8    10
 -0.0002358034     1     6     9     1
 0.2385610823     1     6     9     2
 0.0000065075     1     6     9     3
 -0.0134108789     1     6     9     4
 0.0000002471     1     6     9     5
 -0.0022247522     1     6     9    10
 0.0000662510     1     6    10     8
 -0.0000691165     1     6    10     9
 0.0000199005     1     7     2     8
 0.0000190756     1     7     2     9
 0.0000002650     1     7     3     8
 0.0000002541     1     7     3     9
 -0.0001341525     1     7     4     8
 -0.0001285907     1     7     4     9
 0.0000000163     1     7     5     8
 0.0000000156     1     7     5     9
 0.0000000005     1     7     6     1
 -0.0000000001     1     7     6     3
 -0.5531216882     1     7     7     1
 0.0000001080     1     7     7     2
 0.0213807912     1     7     7     3
 -0.0000106081     1     7     7     4
 -0.0019611172     1     7     7     5
 -0.0000004409     1     7     7    10
 0.0002358034     1     7     8     1
 -0.2385610823     1     7     8     2
 -0.0000065075     1     7     8     3
 0.0134108788     1     7     8     4
 -0.0000002471     1     7     8     5
 0.0022247522     1     7     8    10
 0.0002260270     1     7     9     1
 -0.2286703727     1     7     9     2
 -0.0000062377     1     7     9     3
 0.0128548655     1     7     9     4
 -0.0000002368     1     7     9     5
 0.0021325143     1     7     9    10
 0.0000691165     1     7    10     8
 0.0000662509     1     7    10     9
 -0.0000190755     1     8     2     6
 -0.0000199005     1     8     2     7
 -0.0000002541     1     8     3     6
 -0.0000002650     1     8     3     7
 0.0001285907     1     8     4     6
 0.0001341525     1     8     4     7
 -0.0000000156     1     8     5     6
 -0.0000000163     1     8     5     7
 0.0002260270     1     8     6     1
 -0.2286885876     1     8     6     2
 -0.0000067158     1     8     6     3
 0.0134780405     1     8     6     4
 -0.0000001328     1     8     6     5
 0.0022109704     1     8     6    10
 0.0002358034     1     8     7     1
 -0.2385800853     1     8     7     2
 -0.0000070063     1     8     7     3
 0.0140610078     1     8     7     4
 -0.0000001386     1     8     7     5
 0.0023066017     1     8     7    10
 -0.5281684455     1     8     8     1
 -0.0000000762     1     8     8     2
 0.0177749218     1     8     8     3
 -0.0000090553     1     8     8     4
 -0.0015912099     1     8     8     5
 -0.0000005234     1     8     8    10
 0.0000000001     1     8     9     1
 -0.0000000001     1     8     9     3
 -0.0000662510     1     8    10     6
 -0.0000691165     1     8    10     7
 0.0000199006     1     9     2     6
 -0.0000190756     1     9     2     7
 0.0000002650     1     9     3     6
 -0.0000002541     1     9     3     7
 -0.0001341525     1     9     4     6
 0.0001285907     1     9     4     7
 0.0000000163     1     9     5     6
 -0.0000000156     1     9     5     7
 -0.0002358034     1     9     6     1
 0.2385800853     1     9     6     2
 0.0000070063     1     9     6     3
 -0.0140610078     1     9     6     4
 0.0000001386     1     9     6     5
 -0.0023066017     1     9     6    10
 0.0002260270     1     9     7     1
 -0.2286885879     1     9     7     2
 -0.0000067158     1     9     7     3
 0.0134780402     1     9     7     4
 -0.0000001328     1     9     7     5
 0.0022109704     1     9     7    10
 0.0000000001     1     9     8     1
 -0.0000000001     1     9     8     3
 -0.5281684454     1     9     9     1
 -0.0000000762     1     9     9     2
 0.0177749218     1     9     9     3
 -0.0000090553     1     9     9     4
 -0.0015912099     1     9     9     5
 -0.0000005234     1     9     9    10
 0.0000691165     1     9    10     6
 -0.0000662509     1     9    10     7
 -0.0021728217     1    10     2     1
 -0.0000010737     1    10     2     2
 -0.0000080880     1    10     2     3
 -0.0000562613     1    10     2     5
 0.0000233121     1    10     3     1
 -0.0235684791     1    10     3     2
 -0.0000007276     1    10     3     3
 -0.0009657466     1    10     3     4
 -0.0000007342     1    10     3     5
 -0.0232025384     1    10     4     1
 -0.0000000204     1    10     4     2
 -0.0021586015     1    10     4     3
 0.0000000579     1    10     4     4
 0.0003370115     1    10     4     5
 0.0003186847     1    10     5     1
 -0.3224539336     1    10     5     2
 -0.0000098592     1    10     5     3
 0.0194814695     1    10     5     4
 -0.0000000265     1    10     5     5
 0.0000004409     1    10     6     6
 -0.0022109704     1    10     6     8
 0.0023066017     1    10     6     9
 0.0000004409     1    10     7     7
 -0.0023066017     1    10     7     8
 -0.0022109704     1    10     7     9
 -0.0021325144     1    10     8     6
 -0.0022247522     1    10     8     7
 0.0000005234     1    10     8     8
 0.0022247522     1    10     9     6
 -0.0021325143     1    10     9     7
 0.0000005234     1    10     9     9
 -0.5477614172     1    10    10     1
 -0.0000000705     1    10    10     2
 0.0186330815     1    10    10     3
 -0.0000096761     1    10    10     4
 -0.0045579402     1    10    10     5
 -0.1889678304     2     1     1     2
 -0.0000000530     2     1     1     3
 0.0001232479     2     1     1     4
 -0.0000012212     2     1     1     5
 -0.0021728217     2     1     1    10
 -0.0001069970     2     1     3     2
 -0.0000006801     2     1     3     3
 0.3616544250     2     1     3     4
 0.0000000416     2     1     3     5
 0.0235602776     2     1     3    10
 -0.0000000610     2     1     4     2
 0.3616420254     2     1     4     3
 0.0000006623     2     1     4     4
 -0.0458226173     2     1     4     5
 0.0000000204     2     1     4    10
 -0.0024715031     2     1     5     2
 0.0000000416     2     1     5     3
 -0.0458161324     2     1     5     4
 -0.0000000931     2     1     5     5
 0.3223979108     2     1     5    10
 -0.0000001080     2     1     6     6
 0.2286703724     2     1     6     8
 -0.2385610823     2     1     6     9
 -0.0000001080     2     1     7     7
 0.2385610823     2     1     7     8
 0.2286703727     2     1     7     9
 0.2286885876     2     1     8     6
 0.2385800853     2     1     8     7
 0.0000000762     2     1     8     8
 -0.2385800853     2     1     9     6
 0.2286885879     2     1     9     7
 0.0000000762     2     1     9     9
 0.0000010737     2     1    10     2
 0.0235684791     2     1    10     3
 0.0000000204     2     1    10     4
 0.3224539336     2     1    10     5
 0.0000000705     2     1    10    10
 0.1889678304     2     2     1     1
 0.0001069970     2     2     1     3
 0.0000000610     2     2     1     4
 0.0024715031     2     2     1     5
 -0.0000010737     2     2     1    10
 0.0001069970     2     2     3     1
 0.5472397371     2     2     3     3
 0.0003574398     2     2     3     4
 0.0075259302     2     2     3     5
 0.0000232703     2     2     3    10
 0.0000000610     2     2     4     1
 0.0003574398     2     2     4     3
 0.5530639280     2     2     4     4
 -0.0000452839     2     2     4     5
 0.0231978847     2     2     4    10
 0.0024715031     2     2     5     1
 0.0075259302     2     2     5     3
 -0.0000452839     2     2     5     4
 0.5476129874     2     2     5     5
 0.0003186909     2     2     5    10
 0.5531547985     2     2     6     6
 -0.0000000005     2     2     6     7
 0.0002260295     2     2     6     8
 -0.0002358060     2     2     6     9
 -0.0000000005     2     2     7     6
 0.5531548001     2     2     7     7
 0.0002358060     2     2     7     8
 0.0002260295     2     2     7     9
 0.0002260295     2     2     8     6
 0.0002358060     2     2     8     7
 0.5281459848     2     2     8     8
 -0.0000000001     2     2     8     9
 -0.0002358060     2     2     9     6
 0.0002260295     2     2     9     7
 -0.0000000001     2     2     9     8
 0.5281459847     2     2     9     9
 -0.0000010737     2     2    10     1
 0.0000232703     2     2    10     3
 0.0231978847     2     2    10     4
 0.0003186909     2     2    10     5
 0.5477075842     2     2    10    10
 0.0000000530     2     3     1     1
 -0.0001069970     2     3     1     2
 0.0000119809     2     3     1     4
 -0.0000080880     2     3     1    10
 0.0000006801     2     3     3     1
 -0.5472397371     2     3     3     2
 0.0001502461     2     3     3     4
 -0.0000007233     2     3     3     5
 -0.0014784454     2     3     3    10
 -0.3616420254     2     3     4     1
 -0.0003574398     2     3     4     2
 -0.0000001470     2     3     4     4
 0.0023274004     2     3     4     5
 0.0000010653     2     3     4    10
 -0.0000000416     2     3     5     1
 -0.0075259302     2     3     5     2
 0.0012310881     2     3     5     4
 -0.0000101827     2     3     5     5
 -0.0199108549     2     3     5    10
 -0.0000105398     2     3     6     6
 -0.0135623576     2     3     6     8
 0.0141489719     2     3     6     9
 -0.0000105398     2     3     7     7
 -0.0141489719     2     3     7     8
 -0.0135623573     2     3     7     9
 -0.0125959390     2     3     8     6
 -0.0131407527     2     3     8     7
 -0.0000087702     2     3     8     8
 0.0131407528     2     3     9     6
 -0.0125959388     2     3     9     7
 -0.0000087702     2     3     9     9
 -0.0235684791     2     3    10     1
 -0.0000232703     2     3    10     2
 0.0000005741     2     3    10     4
 -0.0177226664     2     3    10     5
 -0.0000091921     2     3    10    10
 -0.0001232479     2     4     1     1
 -0.0000000610     2     4     1     2
 -0.0000119809     2     4     1     3
 -0.0000062983     2     4     1     5
 -0.3616544250     2     4     3     1
 -0.0003574398     2     4     3     2
 -0.0001502461     2     4     3     3
 0.0010876586     2     4     3     5
 0.0000004756     2     4     3    10
 -0.0000006623     2     4     4     1
 -0.5530639280     2     4     4     2
 0.0000001470     2     4     4     3
 0.0000000410     2     4     4     5
 0.0001230067     2     4     4    10
 0.0458161324     2     4     5     1
 0.0000452839     2     4     5     2
 -0.0012310881     2     4     5     3
 -0.0203165204     2     4     5     5
 -0.0000096454     2     4     5    10
 -0.0214921874     2     4     6     6
 0.0000000001     2     4     6     7
 -0.0000066729     2     4     6     8
 0.0000069615     2     4     6     9
 0.0000000001     2     4     7     6
 -0.0214921876     2     4     7     7
 -0.0000069615     2     4     7     8
 -0.0000066729     2     4     7     9
 -0.0000063640     2     4     8     6
 -0.0000066392     2     4     8     7
 -0.0183627505     2     4     8     8
 0.0000000001     2     4     8     9
 0.0000066392     2     4     9     6
 -0.0000063640     2     4     9     7
 0.0000000001     2     4     9     8
 -0.0183627504     2     4     9     9
 -0.0000000204     2     4    10     1
 -0.0231978847     2     4    10     2
 -0.0000005741     2     4    10     3
 -0.0000090679     2     4    10     5
 -0.0196184298     2     4    10    10
 0.0000012212     2     5     1     1
 -0.0024715031     2     5     1     2
 0.0000062983     2     5     1     4
 -0.0000562613     2     5     1    10
 -0.0000000416     2     5     3     1
 -0.0075259302     2     5     3     2
 0.0000007233     2     5     3     3
 -0.0010876586     2     5     3     4
 -0.0014849139     2     5     3    10
 0.0458226173     2     5     4     1
 0.0000452839     2     5     4     2
 -0.0023274004     2     5     4     3
 -0.0000000410     2     5     4     4
 -0.0000001680     2     5     4    10
 0.0000000931     2     5     5     1
 -0.5476129874     2     5     5     2
 0.0000101827     2     5     5     3
 0.0203165204     2     5     5     4
 -0.0000542502     2     5     5    10
 0.0000009694     2     5     6     6
 -0.0002681753     2     5     6     8
 0.0002797747     2     5     6     9
 0.0000009694     2     5     7     7
 -0.0002797747     2     5     7     8
 -0.0002681752     2     5     7     9
 -0.0004786765     2     5     8     6
 -0.0004993807     2     5     8     7
 0.0000007864     2     5     8     8
 0.0004993807     2     5     9     6
 -0.0004786764     2     5     9     7
 0.0000007864     2     5     9     9
 -0.3224539336     2     5    10     1
 -0.0003186909     2     5    10     2
 0.0177226664     2     5    10     3
 0.0000090679     2     5    10     4
 0.0000022524     2     5    10    10
 -0.0000190755     2     6     1     8
 0.0000199006     2     6     1     9
 -0.0005135897     2     6     3     8
 0.0005358040     2     6     3     9
 -0.0000000639     2     6     4     8
 0.0000000667     2     6     4     9
 -0.0000315111     2     6     5     8
 0.0000328740     2     6     5     9
 0.0000001080     2     6     6     1
 -0.5531547985     2     6     6     2
 0.0000105398     2     6     6     3
 0.0214921874     2     6     6     4
 -0.0000009694     2     6     6     5
 0.0008900695     2     6     6    10
 0.0000000005     2     6     7     2
 -0.0000000001     2     6     7     4
 -0.2286885876     2     6     8     1
 -0.0002260295     2     6     8     2
 0.0125959390     2     6     8     3
 0.0000063640     2     6     8     4
 0.0004786765     2     6     8     5
 0.0000010539     2     6     8    10
 0.2385800853     2     6     9     1
 0.0002358060     2     6     9     2
 -0.0131407528     2     6     9     3
 -0.0000066392     2     6     9     4
 -0.0004993807     2     6     9     5
 -0.0000010994     2     6     9    10
 0.0000000329     2     6    10     8
 -0.0000000343     2     6    10     9
 -0.0000199005     2     7     1     8
 -0.0000190756     2     7     1     9
 -0.0005358040     2     7     3     8
 -0.0005135897     2     7     3     9
 -0.0000000667     2     7     4     8
 -0.0000000639     2     7     4     9
 -0.0000328740     2     7     5     8
 -0.0000315111     2     7     5     9
 0.0000000005     2     7     6     2
 -0.0000000001     2     7     6     4
 0.0000001080     2     7     7     1
 -0.5531548001     2     7     7     2
 0.0000105398     2     7     7     3
 0.0214921876     2     7     7     4
 -0.0000009694     2     7     7     5
 0.0008900696     2     7     7    10
 -0.2385800853     2     7     8     1
 -0.0002358060     2     7     8     2
 0.0131407527     2     7     8     3
 0.0000066392     2     7     8     4
 0.0004993807     2     7     8     5
 0.0000010994     2     7     8    10
 -0.2286885879     2     7     9     1
 -0.0002260295     2     7     9     2
 0.0125959388     2     7     9     3
 0.0000063640     2     7     9     4
 0.0004786764     2     7     9     5
 0.0000010539     2     7     9    10
 0.0000000343     2     7    10     8
 0.0000000329     2     7    10     9
 0.0000190755     2     8     1     6
 0.0000199005     2     8     1     7
 0.0005135897     2     8     3     6
 0.0005358040     2     8     3     7
 0.0000000639     2     8     4     6
 0.0000000667     2     8     4     7
 0.0000315111     2     8     5     6
 0.0000328740     2     8     5     7
 -0.2286703724     2     8     6     1
 -0.0002260295     2     8     6     2
 0.0135623576     2     8     6     3
 0.0000066729     2     8     6     4
 0.0002681753     2     8     6     5
 0.0000010925     2     8     6    10
 -0.2385610823     2     8     7     1
 -0.0002358060     2     8     7     2
 0.0141489719     2     8     7     3
 0.0000069615     2     8     7     4
 0.0002797747     2     8     7     5
 0.0000011398     2     8     7    10
 -0.0000000762     2     8     8     1
 -0.5281459848     2     8     8     2
 0.0000087702     2     8     8     3
 0.0183627505     2     8     8     4
 -0.0000007864     2     8     8     5
 0.0010600789     2     8     8    10
 0.0000000001     2     8     9     2
 -0.0000000001     2     8     9     4
 -0.0000000329     2     8    10     6
 -0.0000000343     2     8    10     7
 -0.0000199006     2     9     1     6
 0.0000190756     2     9     1     7
 -0.0005358040     2     9     3     6
 0.0005135897     2     9     3     7
 -0.0000000667     2     9     4     6
 0.0000000639     2     9     4     7
 -0.0000328740     2     9     5     6
 0.0000315111     2     9     5     7
 0.2385610823     2     9     6     1
 0.0002358060     2     9     6     2
 -0.0141489719     2     9     6     3
 -0.0000069615     2     9     6     4
 -0.0002797747     2     9     6     5
 -0.0000011398     2     9     6    10
 -0.2286703727     2     9     7     1
 -0.0002260295     2     9     7     2
 0.0135623573     2     9     7     3
 0.0000066729     2     9     7     4
 0.0002681752     2     9     7     5
 0.0000010925     2     9     7    10
 0.0000000001     2     9     8     2
 -0.0000000001     2     9     8     4
 -0.0000000762     2     9     9     1
 -0.5281459847     2     9     9     2
 0.0000087702     2     9     9     3
 0.0183627504     2     9     9     4
 -0.0000007864     2     9     9     5
 0.0010600789     2     9     9    10
 0.0000000343     2     9    10     6
 -0.0000000329     2     9    10     7
 0.0021728217     2    10     1     1
 0.0000010737     2    10     1     2
 0.0000080880     2    10     1     3
 0.0000562613     2    10     1     5
 -0.0235602776     2    10     3     1
 -0.0000232703     2    10     3     2
 0.0014784454     2    10     3     3
 -0.0000004756     2    10     3     4
 0.0014849139     2    10     3     5
 -0.0000000204     2    10     4     1
 -0.0231978847     2    10     4     2
 -0.0000010653     2    10     4     3
 -0.0001230067     2    10     4     4
 0.0000001680     2    10     4     5
 -0.3223979108     2    10     5     1
 -0.0003186909     2    10     5     2
 0.0199108549     2    10     5     3
 0.0000096454     2    10     5     4
 0.0000542502     2    10     5     5
 -0.0008900695     2    10     6     6
 -0.0000010925     2    10     6     8
 0.0000011398     2    10     6     9
 -0.0008900696     2    10     7     7
 -0.0000011398     2    10     7     8
 -0.0000010925     2    10     7     9
 -0.0000010539     2    10     8     6
 -0.0000010994     2    10     8     7
 -0.0010600789     2    10     8     8
 0.0000010994     2    10     9     6
 -0.0000010539     2    10     9     7
 -0.0010600789     2    10     9     9
 -0.0000000705     2    10    10     1
 -0.5477075842     2    10    10     2
 0.0000091921     2    10    10     3
 0.0196184298     2    10    10     4
 -0.0000022524     2    10    10     5
 -0.0000000530     3     1     1     2
 -0.5472515447     3     1     1     3
 0.0003574710     3     1     1     4
 -0.0075282829     3     1     1     5
 0.0000233121     3     1     1    10
 0.0001069970     3     1     2     2
 0.0000006801     3     1     2     3
 -0.3616544250     3     1     2     4
 -0.0000000416     3     1     2     5
 -0.0235602776     3     1     2    10
 -0.0000119809     3     1     4     2
 -0.0000000739     3     1     4     3
 -0.0002974212     3     1     4     4
 -0.0000006083     3     1     4     5
 0.0011613904     3     1     4    10
 -0.0014572519     3     1     5     3
 -0.0000011518     3     1     5     4
 -0.0206523830     3     1     5     5
 0.0000087770     3     1     5    10
 -0.0213807908     3     1     6     6
 0.0000000001     3     1     6     7
 0.0000062377     3     1     6     8
 -0.0000065075     3     1     6     9
 0.0000000001     3     1     7     6
 -0.0213807912     3     1     7     7
 0.0000065075     3     1     7     8
 0.0000062377     3     1     7     9
 0.0000067158     3     1     8     6
 0.0000070063     3     1     8     7
 -0.0177749218     3     1     8     8
 0.0000000001     3     1     8     9
 -0.0000070063     3     1     9     6
 0.0000067158     3     1     9     7
 0.0000000001     3     1     9     8
 -0.0177749218     3     1     9     9
 0.0000080880     3     1    10     2
 0.0000007276     3     1    10     3
 0.0021586015     3     1    10     4
 0.0000098592     3     1    10     5
 -0.0186330815     3     1    10    10
 0.0000000530     3     2     1     1
 0.0000006801     3     2     1     3
 -0.3616420254     3     2     1     4
 -0.0000000416     3     2     1     5
 -0.0235684791     3     2     1    10
 -0.0001069970     3     2     2     1
 -0.5472397371     3     2     2     3
 -0.0003574398     3     2     2     4
 -0.0075259302     3     2     2     5
 -0.0000232703     3     2     2    10
 0.0000119809     3     2     4     1
 0.0001502461     3     2     4     3
 -0.0000001470     3     2     4     4
 0.0012310881     3     2     4     5
 0.0000005741     3     2     4    10
 -0.0000007233     3     2     5     3
 0.0023274004     3     2     5     4
 -0.0000101827     3     2     5     5
 -0.0177226664     3     2     5    10
 -0.0000105398     3     2     6     6
 -0.0125959390     3     2     6     8
 0.0131407528     3     2     6     9
 -0.0000105398     3     2     7     7
 -0.0131407527     3     2     7     8
 -0.0125959388     3     2     7     9
 -0.0135623576     3     2     8     6
 -0.0141489719     3     2     8     7
 -0.0000087702     3     2     8     8
 0.0141489719     3     2     9     6
 -0.0135623573     3     2     9     7
 -0.0000087702     3     2     9     9
 -0.0000080880     3     2    10     1
 -0.0014784454     3     2    10     3
 0.0000010653     3     2    10     4
 -0.0199108549     3     2    10     5
 -0.0000091921     3     2    10    10
 0.5472515447     3     3     1     1
 -0.0000006801     3     3     1     2
 0.0000000739     3     3     1     4
 0.0014572519     3     3     1     5
 -0.0000007276     3     3     1    10
 -0.0000006801     3     3     2     1
 0.5472397371     3     3     2     2
 -0.0001502461     3     3     2     4
 0.0000007233     3     3     2     5