&FCI NORB= 10,NELEC= 14,MS2=0,
 ORBSYM=1,1,1,1,1,1,1,1,1,1
 ISYM=1,
&END
 0.2519853772     1     1     2     2
 0.0000000032     1     1     2     3
 -0.0005599920     1     1     2     4
 -0.0000000302     1     1     2     5
 0.0040600817     1     1     2    10
 0.0000000032     1     1     3     2
 0.5791495024     1     1     3     3
 -0.0000045822     1     1     3     4
 -0.0153910098     1     1     3     5
 -0.0000008930     1     1     3    10
 -0.0005599920     1     1     4     2
 -0.0000045822     1     1     4     3
 0.5846729638     1     1     4     4
 -0.0000014649     1     1     4     5
 0.0419806208     1     1     4    10
 -0.0000000302     1     1     5     2
 -0.0153910098     1     1     5     3
 -0.0000014649     1     1     5     4
 0.5783196084     1     1     5     5
 0.0000038801     1     1     5    10
 0.5720278361     1     1     6     6
 -0.0000000985     1     1     6     8
 0.0000041510     1     1     6     9
 0.5720278360     1     1     7     7
 -0.0000041510     1     1     7     8
 -0.0000000986     1     1     7     9
 -0.0000000985     1     1     8     6
 -0.0000041510     1     1     8     7
 0.5594064177     1     1     8     8
 0.0000041510     1     1     9     6
 -0.0000000986     1     1     9     7
 0.5594064177     1     1     9     9
 0.0040600817     1     1    10     2
 -0.0000008930     1     1    10     3
 0.0419806208     1     1    10     4
 0.0000038801     1     1    10     5
 0.5936864972     1     1    10    10
 -0.2519853772     1     2     2     1
 -0.0004437765     1     2     2     3
 -0.0000000040     1     2     2     4
 0.0042791276     1     2     2     5
 0.0000000286     1     2     2    10
 -0.0000000032     1     2     3     1
 -0.0000000032     1     2     3     3
 0.3251636928     1     2     3     4
 0.0000000006     1     2     3     5
 0.0632900541     1     2     3    10
 0.0005599920     1     2     4     1
 0.3251758861     1     2     4     3
 0.0000000082     1     2     4     4
 0.1039596882     1     2     4     5
 0.0000000007     1     2     4    10
 0.0000000302     1     2     5     1
 0.0000000006     1     2     5     3
 0.1039840251     1     2     5     4
 -0.0000000014     1     2     5     5
 -0.2751465208     1     2     5    10
 -0.0000000006     1     2     6     6
 0.0069925824     1     2     6     8
 -0.2945065076     1     2     6     9
 -0.0000000006     1     2     7     7
 0.2945065075     1     2     7     8
 0.0069925824     1     2     7     9
 0.0069910062     1     2     8     6
 0.2944401243     1     2     8     7
 0.0000000015     1     2     8     8
 -0.2944401244     1     2     9     6
 0.0069910062     1     2     9     7
 0.0000000015     1     2     9     9
 -0.0040600817     1     2    10     1
 0.0632703698     1     2    10     3
 0.0000000007     1     2    10     4
 -0.2750114918     1     2    10     5
 0.0000000025     1     2    10    10
 -0.0000000032     1     3     2     1
 0.0004437765     1     3     2     2
 -0.0000115622     1     3     2     4
 0.0000195824     1     3     2    10
 -0.5791495024     1     3     3     1
 0.0000000032     1     3     3     2
 -0.0000000034     1     3     3     4
 0.0038484357     1     3     3     5
 0.0000000288     1     3     3    10
 0.0000045822     1     3     4     1
 -0.3251758861     1     3     4     2
 -0.0007938170     1     3     4     4
 0.0000000315     1     3     4     5
 0.0043091845     1     3     4    10
 0.0153910098     1     3     5     1
 -0.0000000006     1     3     5     2
 0.0000000274     1     3     5     4
 -0.0201910999     1     3     5     5
 -0.0000001417     1     3     5    10
 -0.0201083639     1     3     6     6
 0.0000000032     1     3     6     8
 -0.0000001345     1     3     6     9
 -0.0201083639     1     3     7     7
 0.0000001345     1     3     7     8
 0.0000000032     1     3     7     9
 0.0000000029     1     3     8     6
 0.0000001199     1     3     8     7
 -0.0177486262     1     3     8     8
 -0.0000001200     1     3     9     6
 0.0000000029     1     3     9     7
 -0.0177486262     1     3     9     9
 0.0000008930     1     3    10     1
 -0.0632703698     1     3    10     2
 0.0030787988     1     3    10     4
 -0.0000001153     1     3    10     5
 -0.0184309301     1     3    10    10
 0.0005599920     1     4     2     1
 0.0000000040     1     4     2     2
 0.0000115622     1     4     2     3
 -0.0000236778     1     4     2     5
 0.0000045822     1     4     3     1
 -0.3251636928     1     4     3     2
 0.0000000034     1     4     3     3
 0.0000000038     1     4     3     5
 0.0010201221     1     4     3    10
 -0.5846729638     1     4     4     1
 -0.0000000082     1     4     4     2
 0.0007938170     1     4     4     3
 -0.0010070709     1     4     4     5
 -0.0000000080     1     4     4    10
 0.0000014649     1     4     5     1
 -0.1039840251     1     4     5     2
 -0.0000000274     1     4     5     3
 0.0000001387     1     4     5     5
 0.0193471919     1     4     5    10
 0.0000001440     1     4     6     6
 -0.0004403525     1     4     6     8
 0.0185463208     1     4     6     9
 0.0000001440     1     4     7     7
 -0.0185463208     1     4     7     8
 -0.0004403525     1     4     7     9
 -0.0004210494     1     4     8     6
 -0.0177333326     1     4     8     7
 0.0000001350     1     4     8     8
 0.0177333326     1     4     9     6
 -0.0004210494     1     4     9     7
 0.0000001350     1     4     9     9
 -0.0419806208     1     4    10     1
 -0.0000000007     1     4    10     2
 -0.0030787988     1     4    10     3
 0.0169700713     1     4    10     5
 0.0000001510     1     4    10    10
 0.0000000302     1     5     2     1
 -0.0042791276     1     5     2     2
 0.0000236778     1     5     2     4
 -0.0001367165     1     5     2    10
 0.0153910098     1     5     3     1
 -0.0000000006     1     5     3     2
 -0.0038484357     1     5     3     3
 -0.0000000038     1     5     3     4
 -0.0000000200     1     5     3    10
 0.0000014649     1     5     4     1
 -0.1039596882     1     5     4     2
 -0.0000000315     1     5     4     3
 0.0010070709     1     5     4     4
 0.0011820719     1     5     4    10
 -0.5783196084     1     5     5     1
 0.0000000014     1     5     5     2
 0.0201910999     1     5     5     3
 -0.0000001387     1     5     5     4
 -0.0000000096     1     5     5    10
 -0.0045293345     1     5     6     6
 -0.0000000014     1     5     6     9
 -0.0045293345     1     5     7     7
 0.0000000014     1     5     7     8
 0.0000000001     1     5     8     6
 0.0000000036     1     5     8     7
 -0.0038007664     1     5     8     8
 -0.0000000036     1     5     9     6
 0.0000000001     1     5     9     7
 -0.0038007664     1     5     9     9
 -0.0000038801     1     5    10     1
 0.2750114918     1     5    10     2
 0.0000001153     1     5    10     3
 -0.0169700713     1     5    10     4
 -0.0095247417     1     5    10    10
 0.0000015630     1     6     2     8
 -0.0000658287     1     6     2     9
 0.0000000002     1     6     3     8
 -0.0000000093     1     6     3     9
 0.0000027391     1     6     4     8
 -0.0001153632     1     6     4     9
 0.0000000038     1     6     5     9
 -0.5720278361     1     6     6     1
 0.0000000006     1     6     6     2
 0.0201083639     1     6     6     3
 -0.0000001440     1     6     6     4
 0.0045293345     1     6     6     5
 -0.0000000151     1     6     6    10
 0.0000000985     1     6     8     1
 -0.0069910062     1     6     8     2
 -0.0000000029     1     6     8     3
 0.0004210494     1     6     8     4
 -0.0000000001     1     6     8     5
 0.0001469158     1     6     8    10
 -0.0000041510     1     6     9     1
 0.2944401244     1     6     9     2
 0.0000001200     1     6     9     3
 -0.0177333326     1     6     9     4
 0.0000000036     1     6     9     5
 -0.0061876514     1     6     9    10
 0.0000029198     1     6    10     8
 -0.0001229757     1     6    10     9
 0.0000658287     1     7     2     8
 0.0000015630     1     7     2     9
 0.0000000093     1     7     3     8
 0.0000000002     1     7     3     9
 0.0001153632     1     7     4     8
 0.0000027391     1     7     4     9
 -0.0000000038     1     7     5     8
 -0.5720278360     1     7     7     1
 0.0000000006     1     7     7     2
 0.0201083639     1     7     7     3
 -0.0000001440     1     7     7     4
 0.0045293345     1     7     7     5
 -0.0000000151     1     7     7    10
 0.0000041510     1     7     8     1
 -0.2944401243     1     7     8     2
 -0.0000001199     1     7     8     3
 0.0177333326     1     7     8     4
 -0.0000000036     1     7     8     5
 0.0061876514     1     7     8    10
 0.0000000986     1     7     9     1
 -0.0069910062     1     7     9     2
 -0.0000000029     1     7     9     3
 0.0004210494     1     7     9     4
 -0.0000000001     1     7     9     5
 0.0001469158     1     7     9    10
 0.0001229757     1     7    10     8
 0.0000029198     1     7    10     9
 -0.0000015630     1     8     2     6
 -0.0000658287     1     8     2     7
 -0.0000000002     1     8     3     6
 -0.0000000093     1     8     3     7
 -0.0000027391     1     8     4     6
 -0.0001153632     1     8     4     7
 0.0000000038     1     8     5     7
 0.0000000985     1     8     6     1
 -0.0069925824     1     8     6     2
 -0.0000000032     1     8     6     3
 0.0004403525     1     8     6     4
 0.0001516004     1     8     6    10
 0.0000041510     1     8     7     1
 -0.2945065075     1     8     7     2
 -0.0000001345     1     8     7     3
 0.0185463208     1     8     7     4
 -0.0000000014     1     8     7     5
 0.0063849487     1     8     7    10
 -0.5594064177     1     8     8     1
 -0.0000000015     1     8     8     2
 0.0177486262     1     8     8     3
 -0.0000001350     1     8     8     4
 0.0038007664     1     8     8     5
 -0.0000000227     1     8     8    10
 -0.0000029198     1     8    10     6
 -0.0001229757     1     8    10     7
 0.0000658287     1     9     2     6
 -0.0000015630     1     9     2     7
 0.0000000093     1     9     3     6
 -0.0000000002     1     9     3     7
 0.0001153632     1     9     4     6
 -0.0000027391     1     9     4     7
 -0.0000000038     1     9     5     6
 -0.0000041510     1     9     6     1
 0.2945065076     1     9     6     2
 0.0000001345     1     9     6     3
 -0.0185463208     1     9     6     4
 0.0000000014     1     9     6     5
 -0.0063849487     1     9     6    10
 0.0000000986     1     9     7     1
 -0.0069925824     1     9     7     2
 -0.0000000032     1     9     7     3
 0.0004403525     1     9     7     4
 0.0001516004     1     9     7    10
 -0.5594064177     1     9     9     1
 -0.0000000015     1     9     9     2
 0.0177486262     1     9     9     3
 -0.0000001350     1     9     9     4
 0.0038007664     1     9     9     5
 -0.0000000227     1     9     9    10
 0.0001229757     1     9    10     6
 -0.0000029198     1     9    10     7
 -0.0040600817     1    10     2     1
 -0.0000000286     1    10     2     2
 -0.0000195824     1    10     2     3
 0.0001367165     1    10     2     5
 0.0000008930     1    10     3     1
 -0.0632900541     1    10     3     2
 -0.0000000288     1    10     3     3
 -0.0010201221     1    10     3     4
 0.0000000200     1    10     3     5
 -0.0419806208     1    10     4     1
 -0.0000000007     1    10     4     2
 -0.0043091845     1    10     4     3
 0.0000000080     1    10     4     4
 -0.0011820719     1    10     4     5
 -0.0000038801     1    10     5     1
 0.2751465208     1    10     5     2
 0.0000001417     1    10     5     3
 -0.0193471919     1    10     5     4
 0.0000000096     1    10     5     5
 0.0000000151     1    10     6     6
 -0.0001516004     1    10     6     8
 0.0063849487     1    10     6     9
 0.0000000151     1    10     7     7
 -0.0063849487     1    10     7     8
 -0.0001516004     1    10     7     9
 -0.0001469158     1    10     8     6
 -0.0061876514     1    10     8     7
 0.0000000227     1    10     8     8
 0.0061876514     1    10     9     6
 -0.0001469158     1    10     9     7
 0.0000000227     1    10     9     9
 -0.5936864972     1    10    10     1
 -0.0000000025     1    10    10     2
 0.0184309301     1    10    10     3
 -0.0000001510     1    10    10     4
 0.0095247417     1    10    10     5
 -0.2519853772     2     1     1     2
 -0.0000000032     2     1     1     3
 0.0005599920     2     1     1     4
 0.0000000302     2     1     1     5
 -0.0040600817     2     1     1    10
 -0.0004437765     2     1     3     2
 -0.0000000032     2     1     3     3
 0.3251758861     2     1     3     4
 0.0000000006     2     1     3     5
 0.0632703698     2     1     3    10
 -0.0000000040     2     1     4     2
 0.3251636928     2     1     4     3
 0.0000000082     2     1     4     4
 0.1039840251     2     1     4     5
 0.0000000007     2     1     4    10
 0.0042791276     2     1     5     2
 0.0000000006     2     1     5     3
 0.1039596882     2     1     5     4
 -0.0000000014     2     1     5     5
 -0.2750114918     2     1     5    10
 -0.0000000006     2     1     6     6
 0.0069910062     2     1     6     8
 -0.2944401244     2     1     6     9
 -0.0000000006     2     1     7     7
 0.2944401243     2     1     7     8
 0.0069910062     2     1     7     9
 0.0069925824     2     1     8     6
 0.2945065075     2     1     8     7
 0.0000000015     2     1     8     8
 -0.2945065076     2     1     9     6
 0.0069925824     2     1     9     7
 0.0000000015     2     1     9     9
 0.0000000286     2     1    10     2
 0.0632900541     2     1    10     3
 0.0000000007     2     1    10     4
 -0.2751465208     2     1    10     5
 0.0000000025     2     1    10    10
 0.2519853772     2     2     1     1
 0.0004437765     2     2     1     3
 0.0000000040     2     2     1     4
 -0.0042791276     2     2     1     5
 -0.0000000286     2     2     1    10
 0.0004437765     2     2     3     1
 0.5791376874     2     2     3     3
 0.0000045873     2     2     3     4
 -0.0153937549     2     2     3     5
 0.0000008916     2     2     3    10
 0.0000000040     2     2     4     1
 0.0000045873     2     2     4     3
 0.5846801758     2     2     4     4
 0.0000014669     2     2     4     5
 0.0419876580     2     2     4    10
 -0.0042791276     2     2     5     1
 -0.0153937549     2     2     5     3
 0.0000014669     2     2     5     4
 0.5784625787     2     2     5     5
 -0.0000038767     2     2     5    10
 0.5721036503     2     2     6     6
 0.0000000985     2     2     6     8
 -0.0000041529     2     2     6     9
 0.5721036502     2     2     7     7
 0.0000041529     2     2     7     8
 0.0000000986     2     2     7     9
 0.0000000985     2     2     8     6
 0.0000041529     2     2     8     7
 0.5593553891     2     2     8     8
 -0.0000041529     2     2     9     6
 0.0000000986     2     2     9     7
 0.5593553892     2     2     9     9
 -0.0000000286     2     2    10     1
 0.0000008916     2     2    10     3
 0.0419876580     2     2    10     4
 -0.0000038767     2     2    10     5
 0.5935533849     2     2    10    10
 0.0000000032     2     3     1     1
 -0.0004437765     2     3     1     2
 0.0000115622     2     3     1     4
 -0.0000195824     2     3     1    10
 0.0000000032     2     3     3     1
 -0.5791376874     2     3     3     2
 0.0004321019     2     3     3     4
 0.0000000266     2     3     3     5
 -0.0040101146     2     3     3    10
 -0.3251636928     2     3     4     1
 -0.0000045873     2     3     4     2
 -0.0000000056     2     3     4     4
 -0.0045240643     2     3     4     5
 0.0000000305     2     3     4    10
 -0.0000000006     2     3     5     1
 0.0153937549     2     3     5     2
 -0.0038765253     2     3     5     4
 -0.0000001410     2     3     5     5
 0.0199509342     2     3     5    10
 -0.0000001420     2     3     6     6
 -0.0004536378     2     3     6     8
 0.0191058572     2     3     6     9
 -0.0000001420     2     3     7     7
 -0.0191058572     2     3     7     8
 -0.0004536378     2     3     7     9
 -0.0004038690     2     3     8     6
 -0.0170097455     2     3     8     7
 -0.0000001257     2     3     8     8
 0.0170097455     2     3     9     6
 -0.0004038690     2     3     9     7
 -0.0000001256     2     3     9     9
 -0.0632900541     2     3    10     1
 -0.0000008916     2     3    10     2
 0.0000000212     2     3    10     4
 0.0161698411     2     3    10     5
 -0.0000001290     2     3    10    10
 -0.0005599920     2     4     1     1
 -0.0000000040     2     4     1     2
 -0.0000115622     2     4     1     3
 0.0000236778     2     4     1     5
 -0.3251758861     2     4     3     1
 -0.0000045873     2     4     3     2
 -0.0004321019     2     4     3     3
 -0.0006114929     2     4     3     5
 0.0000000078     2     4     3    10
 -0.0000000082     2     4     4     1
 -0.5846801758     2     4     4     2
 0.0000000056     2     4     4     3
 -0.0000000076     2     4     4     5
 0.0011751099     2     4     4    10
 -0.1039596882     2     4     5     1
 -0.0000014669     2     4     5     2
 0.0038765253     2     4     5     3
 -0.0195323214     2     4     5     5
 0.0000001356     2     4     5    10
 -0.0205047156     2     4     6     6
 -0.0000000031     2     4     6     8
 0.0000001313     2     4     6     9
 -0.0205047156     2     4     7     7
 -0.0000001313     2     4     7     8
 -0.0000000031     2     4     7     9
 -0.0000000029     2     4     8     6
 -0.0000001253     2     4     8     7
 -0.0192690794     2     4     8     8
 0.0000001253     2     4     9     6
 -0.0000000030     2     4     9     7
 -0.0192690794     2     4     9     9
 -0.0000000007     2     4    10     1
 -0.0419876580     2     4    10     2
 -0.0000000212     2     4    10     3
 0.0000001186     2     4    10     5
 -0.0212983806     2     4    10    10
 -0.0000000302     2     5     1     1
 0.0042791276     2     5     1     2
 -0.0000236778     2     5     1     4
 0.0001367165     2     5     1    10
 -0.0000000006     2     5     3     1
 0.0153937549     2     5     3     2
 -0.0000000266     2     5     3     3
 0.0006114929     2     5     3     4
 0.0028488105     2     5     3    10
 -0.1039840251     2     5     4     1
 -0.0000014669     2     5     4     2
 0.0045240643     2     5     4     3
 0.0000000076     2     5     4     4
 0.0000000085     2     5     4    10
 0.0000000014     2     5     5     1
 -0.5784625787     2     5     5     2
 0.0000001410     2     5     5     3
 0.0195323214     2     5     5     4
 0.0013069558     2     5     5    10
 -0.0000000321     2     5     6     6
 -0.0000051582     2     5     6     8
 0.0002172478     2     5     6     9
 -0.0000000321     2     5     7     7
 -0.0002172478     2     5     7     8
 -0.0000051582     2     5     7     9
 -0.0000126280     2     5     8     6
 -0.0005318515     2     5     8     7
 -0.0000000270     2     5     8     8
 0.0005318515     2     5     9     6
 -0.0000126280     2     5     9     7
 -0.0000000270     2     5     9     9
 0.2751465208     2     5    10     1
 0.0000038767     2     5    10     2
 -0.0161698411     2     5    10     3
 -0.0000001186     2     5    10     4
 -0.0000000668     2     5    10    10
 -0.0000015630     2     6     1     8
 0.0000658287     2     6     1     9
 -0.0000314535     2     6     3     8
 0.0013247232     2     6     3     9
 -0.0000000008     2     6     4     9
 0.0000128869     2     6     5     8
 -0.0005427561     2     6     5     9
 0.0000000006     2     6     6     1
 -0.5721036503     2     6     6     2
 0.0000001420     2     6     6     3
 0.0205047156     2     6     6     4
 0.0000000321     2     6     6     5
 0.0021512194     2     6     6    10
 -0.0069925824     2     6     8     1
 -0.0000000985     2     6     8     2
 0.0004038690     2     6     8     3
 0.0000000029     2     6     8     4
 0.0000126280     2     6     8     5
 0.0000000010     2     6     8    10
 0.2945065076     2     6     9     1
 0.0000041529     2     6     9     2
 -0.0170097455     2     6     9     3
 -0.0000001253     2     6     9     4
 -0.0005318515     2     6     9     5
 -0.0000000438     2     6     9    10
 -0.0000000008     2     6    10     9
 -0.0000658287     2     7     1     8
 -0.0000015630     2     7     1     9
 -0.0013247232     2     7     3     8
 -0.0000314534     2     7     3     9
 0.0000000008     2     7     4     8
 0.0005427561     2     7     5     8
 0.0000128869     2     7     5     9
 0.0000000006     2     7     7     1
 -0.5721036502     2     7     7     2
 0.0000001420     2     7     7     3
 0.0205047156     2     7     7     4
 0.0000000321     2     7     7     5
 0.0021512194     2     7     7    10
 -0.2945065075     2     7     8     1
 -0.0000041529     2     7     8     2
 0.0170097455     2     7     8     3
 0.0000001253     2     7     8     4
 0.0005318515     2     7     8     5
 0.0000000438     2     7     8    10
 -0.0069925824     2     7     9     1
 -0.0000000986     2     7     9     2
 0.0004038690     2     7     9     3
 0.0000000030     2     7     9     4
 0.0000126280     2     7     9     5
 0.0000000010     2     7     9    10
 0.0000000008     2     7    10     8
 0.0000015630     2     8     1     6
 0.0000658287     2     8     1     7
 0.0000314535     2     8     3     6
 0.0013247232     2     8     3     7
 -0.0000000008     2     8     4     7
 -0.0000128869     2     8     5     6
 -0.0005427561     2     8     5     7
 -0.0069910062     2     8     6     1
 -0.0000000985     2     8     6     2
 0.0004536378     2     8     6     3
 0.0000000031     2     8     6     4
 0.0000051582     2     8     6     5
 0.0000000011     2     8     6    10
 -0.2944401243     2     8     7     1
 -0.0000041529     2     8     7     2
 0.0191058572     2     8     7     3
 0.0000001313     2     8     7     4
 0.0002172478     2     8     7     5
 0.0000000451     2     8     7    10
 -0.0000000015     2     8     8     1
 -0.5593553891     2     8     8     2
 0.0000001257     2     8     8     3
 0.0192690794     2     8     8     4
 0.0000000270     2     8     8     5
 0.0032304669     2     8     8    10
 -0.0000000008     2     8    10     7
 -0.0000658287     2     9     1     6
 0.0000015630     2     9     1     7
 -0.0013247232     2     9     3     6
 0.0000314534     2     9     3     7
 0.0000000008     2     9     4     6
 0.0005427561     2     9     5     6
 -0.0000128869     2     9     5     7
 0.2944401244     2     9     6     1
 0.0000041529     2     9     6     2
 -0.0191058572     2     9     6     3
 -0.0000001313     2     9     6     4
 -0.0002172478     2     9     6     5
 -0.0000000451     2     9     6    10
 -0.0069910062     2     9     7     1
 -0.0000000986     2     9     7     2
 0.0004536378     2     9     7     3
 0.0000000031     2     9     7     4
 0.0000051582     2     9     7     5
 0.0000000011     2     9     7    10
 -0.0000000015     2     9     9     1
 -0.5593553892     2     9     9     2
 0.0000001256     2     9     9     3
 0.0192690794     2     9     9     4
 0.0000000270     2     9     9     5
 0.0032304670     2     9     9    10
 0.0000000008     2     9    10     6
 0.0040600817     2    10     1     1
 0.0000000286     2    10     1     2
 0.0000195824     2    10     1     3
 -0.0001367165     2    10     1     5
 -0.0632703698     2    10     3     1
 -0.0000008916     2    10     3     2
 0.0040101146     2    10     3     3
 -0.0000000078     2    10     3     4
 -0.0028488105     2    10     3     5
 -0.0000000007     2    10     4     1
 -0.0419876580     2    10     4     2
 -0.0000000305     2    10     4     3
 -0.0011751099     2    10     4     4
 -0.0000000085     2    10     4     5
 0.2750114918     2    10     5     1
 0.0000038767     2    10     5     2
 -0.0199509342     2    10     5     3
 -0.0000001356     2    10     5     4
 -0.0013069558     2    10     5     5
 -0.0021512194     2    10     6     6
 -0.0000000011     2    10     6     8
 0.0000000451     2    10     6     9
 -0.0021512194     2    10     7     7
 -0.0000000451     2    10     7     8
 -0.0000000011     2    10     7     9
 -0.0000000010     2    10     8     6
 -0.0000000438     2    10     8     7
 -0.0032304669     2    10     8     8
 0.0000000438     2    10     9     6
 -0.0000000010     2    10     9     7
 -0.0032304670     2    10     9     9
 -0.0000000025     2    10    10     1
 -0.5935533849     2    10    10     2
 0.0000001290     2    10    10     3
 0.0212983806     2    10    10     4
 0.0000000668     2    10    10     5
 -0.0000000032     3     1     1     2
 -0.5791495024     3     1     1     3
 0.0000045822     3     1     1     4
 0.0153910098     3     1     1     5
 0.0000008930     3     1     1    10
 0.0004437765     3     1     2     2
 0.0000000032     3     1     2     3
 -0.3251758861     3     1     2     4
 -0.0000000006     3     1     2     5
 -0.0632703698     3     1     2    10
 -0.0000115622     3     1     4     2
 -0.0000000034     3     1     4     3
 -0.0007938170     3     1     4     4
 0.0000000274     3     1     4     5
 0.0030787988     3     1     4    10
 0.0038484357     3     1     5     3
 0.0000000315     3     1     5     4
 -0.0201910999     3     1     5     5
 -0.0000001153     3     1     5    10
 -0.0201083639     3     1     6     6
 0.0000000029     3     1     6     8
 -0.0000001200     3     1     6     9
 -0.0201083639     3     1     7     7
 0.0000001199     3     1     7     8
 0.0000000029     3     1     7     9
 0.0000000032     3     1     8     6
 0.0000001345     3     1     8     7
 -0.0177486262     3     1     8     8
 -0.0000001345     3     1     9     6
 0.0000000032     3     1     9     7
 -0.0177486262     3     1     9     9
 0.0000195824     3     1    10     2
 0.0000000288     3     1    10     3
 0.0043091845     3     1    10     4
 -0.0000001417     3     1    10     5
 -0.0184309301     3     1    10    10
 0.0000000032     3     2     1     1
 0.0000000032     3     2     1     3
 -0.3251636928     3     2     1     4
 -0.0000000006     3     2     1     5
 -0.0632900541     3     2     1    10
 -0.0004437765     3     2     2     1
 -0.5791376874     3     2     2     3
 -0.0000045873     3     2     2     4
 0.0153937549     3     2     2     5
 -0.0000008916     3     2     2    10
 0.0000115622     3     2     4     1
 0.0004321019     3     2     4     3
 -0.0000000056     3     2     4     4
 -0.0038765253     3     2     4     5
 0.0000000212     3     2     4    10
 0.0000000266     3     2     5     3
 -0.0045240643     3     2     5     4
 -0.0000001410     3     2     5     5
 0.0161698411     3     2     5    10
 -0.0000001420     3     2     6     6
 -0.0004038690     3     2     6     8
 0.0170097455     3     2     6     9
 -0.0000001420     3     2     7     7
 -0.0170097455     3     2     7     8
 -0.0004038690     3     2     7     9
 -0.0004536378     3     2     8     6
 -0.0191058572     3     2     8     7
 -0.0000001257     3     2     8     8
 0.0191058572     3     2     9     6
 -0.0004536378     3     2     9     7
 -0.0000001256     3     2     9     9
 -0.0000195824     3     2    10     1
 -0.0040101146     3     2    10     3
 0.0000000305     3     2    10     4
 0.0199509342     3     2    10     5
 -0.0000001290     3     2    10    10
 0.5791495024     3     3     1     1
 -0.0000000032     3     3     1     2
 0.0000000034     3     3     1     4
 -0.0038484357     3     3     1     5
 -0.0000000288     3     3     1    10
 -0.0000000032     3     3     2     1
 0.5791376874     3     3     2     2
 -0.0004321019     3     3     2     4
 -0.0000000266     3     3     2     5
 0.0040101146     3     3     2    10
 0.0000000034     3     3     4     1
 -0.0004321019     3     3     4     2
 0.2508145214     3     3     4     4
 -0.0000000010     3     3     4     5
 0.0114118787     3     3     4    10
 -0.0038484357     3     3     5     1
 -0.0000000266     3     3     5     2
 -0.0000000010     3     3     5     4
 0.3832331505     3     3     5     5
 0.0000000061     3     3     5    10
 0.3828992594     3     3     6     6
 -0.0000000001     3     3     6     7
 -0.0000000002     3     3     6     8
 0.0000000023     3     3     6     9
 -0.0000000001     3     3     7     6
 0.3828992594     3     3     7     7
 -0.0000000022     3     3     7     8
 -0.0000000002     3     3     8     6
 -0.0000000022     3     3     8     7
 0.3896669113     3     3     8     8
 0.0000000001     3     3     8     9
 0.0000000023     3     3     9     6
 0.0000000001     3     3     9     8
 0.3896669112     3     3     9     9
 -0.0000000288     3     3    10     1
 0.0040101146     3     3    10     2
 0.0114118787     3     3    10     4
 0.0000000061     3     3    10     5
 0.4075872633     3     3    10    10
 -0.0000045822     3     4     1     1
 0.3251636928     3     4     1     2
 -0.0000000034     3     4     1     3
 -0.0000000038     3     4     1     5
 -0.0010201221     3     4     1    10
 0.3251758861     3     4     2     1
 0.0000045873     3     4     2     2
 0.0004321019     3     4     2     3
 0.0006114929     3     4     2     5
 -0.0000000078     3     4     2    10
 0.0007938170     3     4     4     1
 0.0000000056     3     4     4     2
 -0.2508145214     3     4     4     3
 0.0734286155     3     4     4     5
 0.0000000010     3     4     4    10
 -0.0000000315     3     4     5     1
 0.0045240643     3     4     5     2
 0.0000000010     3     4     5     3
 -0.0000000030     3     4     5     5
 -0.1347546756     3     4     5    10
 -0.0000000009     3     4     6     6
 -0.0000000001     3     4     6     7