&FCI NORB= 10,NELEC= 14,MS2=0,
 ORBSYM=1,1,1,1,1,1,1,1,1,1
 ISYM=1,
&END
 0.2300647663     1     1     2     2
 -0.0000000096     1     1     2     3
 -0.0003527033     1     1     2     4
 0.0000001275     1     1     2     5
 0.0033368363     1     1     2    10
 -0.0000000096     1     1     3     2
 0.5671025066     1     1     3     3
 0.0000241731     1     1     3     4
 -0.0110170774     1     1     3     5
 0.0000033427     1     1     3    10
 -0.0003527033     1     1     4     2
 0.0000241731     1     1     4     3
 0.5746726054     1     1     4     4
 0.0000058290     1     1     4     5
 0.0357322627     1     1     4    10
 0.0000001275     1     1     5     2
 -0.0110170774     1     1     5     3
 0.0000058290     1     1     5     4
 0.5652941165     1     1     5     5
 -0.0000206805     1     1     5    10
 0.5665437714     1     1     6     6
 0.0000000014     1     1     6     7
 -0.0000067710     1     1     6     8
 0.0000208393     1     1     6     9
 0.0000000014     1     1     7     6
 0.5665437717     1     1     7     7
 -0.0000208393     1     1     7     8
 -0.0000067710     1     1     7     9
 -0.0000067710     1     1     8     6
 -0.0000208393     1     1     8     7
 0.5493458645     1     1     8     8
 0.0000000001     1     1     8     9
 0.0000208393     1     1     9     6
 -0.0000067710     1     1     9     7
 0.0000000001     1     1     9     8
 0.5493458647     1     1     9     9
 0.0033368363     1     1    10     2
 0.0000033427     1     1    10     3
 0.0357322627     1     1    10     4
 -0.0000206805     1     1    10     5
 0.5793294302     1     1    10    10
 -0.2300647663     1     2     2     1
 0.0002668004     1     2     2     3
 -0.0000000126     1     2     2     4
 -0.0035784573     1     2     2     5
 0.0000001189     1     2     2    10
 0.0000000096     1     2     3     1
 -0.0000000331     1     2     3     3
 -0.3391489312     1     2     3     4
 -0.0000000030     1     2     3     5
 -0.0468847932     1     2     3    10
 0.0003527033     1     2     4     1
 -0.3391602401     1     2     4     3
 0.0000000315     1     2     4     4
 -0.0817769197     1     2     4     5
 0.0000000020     1     2     4    10
 -0.0000001275     1     2     5     1
 -0.0000000030     1     2     5     3
 -0.0817927601     1     2     5     4
 -0.0000000089     1     2     5     5
 0.2902120842     1     2     5    10
 -0.0000000092     1     2     6     6
 0.0950096361     1     2     6     8
 -0.2924151279     1     2     6     9
 -0.0000000092     1     2     7     7
 0.2924151285     1     2     7     8
 0.0950096352     1     2     7     9
 0.0949943878     1     2     8     6
 0.2923681984     1     2     8     7
 0.0000000068     1     2     8     8
 -0.2923681979     1     2     9     6
 0.0949943869     1     2     9     7
 0.0000000068     1     2     9     9
 -0.0033368363     1     2    10     1
 -0.0468707332     1     2    10     3
 0.0000000020     1     2    10     4
 0.2901100369     1     2    10     5
 0.0000000068     1     2    10    10
 0.0000000096     1     3     2     1
 -0.0002668004     1     3     2     2
 0.0000111737     1     3     2     4
 -0.0000140597     1     3     2    10
 -0.5671025066     1     3     3     1
 0.0000000331     1     3     3     2
 -0.0000000090     1     3     3     4
 -0.0027952876     1     3     3     5
 0.0000001022     1     3     3    10
 -0.0000241731     1     3     4     1
 0.3391602401     1     3     4     2
 0.0005352208     1     3     4     4
 0.0000001301     1     3     4     5
 -0.0034769179     1     3     4    10
 0.0110170774     1     3     5     1
 0.0000000030     1     3     5     2
 0.0000000956     1     3     5     4
 0.0201106959     1     3     5     5
 -0.0000007088     1     3     5    10
 0.0206816963     1     3     6     6
 0.0000000001     1     3     6     7
 -0.0000002130     1     3     6     8
 0.0000006554     1     3     6     9
 0.0000000001     1     3     7     6
 0.0206816963     1     3     7     7
 -0.0000006554     1     3     7     8
 -0.0000002130     1     3     7     9
 -0.0000001932     1     3     8     6
 -0.0000005947     1     3     8     7
 0.0178250489     1     3     8     8
 0.0000005947     1     3     9     6
 -0.0000001932     1     3     9     7
 0.0178250489     1     3     9     9
 -0.0000033427     1     3    10     1
 0.0468707332     1     3    10     2
 -0.0022179073     1     3    10     4
 -0.0000005924     1     3    10     5
 0.0188093792     1     3    10    10
 0.0003527033     1     4     2     1
 0.0000000126     1     4     2     2
 -0.0000111737     1     4     2     3
 0.0000152645     1     4     2     5
 -0.0000241731     1     4     3     1
 0.3391489312     1     4     3     2
 0.0000000090     1     4     3     3
 0.0000000335     1     4     3     5
 -0.0011258766     1     4     3    10
 -0.5746726054     1     4     4     1
 -0.0000000315     1     4     4     2
 -0.0005352208     1     4     4     3
 0.0006061999     1     4     4     5
 -0.0000000243     1     4     4    10
 -0.0000058290     1     4     5     1
 0.0817927601     1     4     5     2
 -0.0000000956     1     4     5     3
 0.0000006978     1     4     5     5
 -0.0192677948     1     4     5    10
 0.0000007471     1     4     6     6
 -0.0058736003     1     4     6     8
 0.0180774259     1     4     6     9
 0.0000007471     1     4     7     7
 -0.0180774257     1     4     7     8
 -0.0058736007     1     4     7     9
 -0.0056075974     1     4     8     6
 -0.0172587373     1     4     8     7
 0.0000006753     1     4     8     8
 0.0172587374     1     4     9     6
 -0.0056075977     1     4     9     7
 0.0000006753     1     4     9     9
 -0.0357322627     1     4    10     1
 -0.0000000020     1     4    10     2
 0.0022179073     1     4    10     3
 -0.0173976502     1     4    10     5
 0.0000007419     1     4    10    10
 -0.0000001275     1     5     2     1
 0.0035784573     1     5     2     2
 -0.0000152645     1     5     2     4
 0.0001028666     1     5     2    10
 0.0110170774     1     5     3     1
 0.0000000030     1     5     3     2
 0.0027952876     1     5     3     3
 -0.0000000335     1     5     3     4
 -0.0000000848     1     5     3    10
 -0.0000058290     1     5     4     1
 0.0817769197     1     5     4     2
 -0.0000001301     1     5     4     3
 -0.0006061999     1     5     4     4
 -0.0007589115     1     5     4    10
 -0.5652941165     1     5     5     1
 0.0000000089     1     5     5     2
 -0.0201106959     1     5     5     3
 -0.0000006978     1     5     5     4
 -0.0000000244     1     5     5    10
 0.0035493442     1     5     6     6
 0.0000000001     1     5     6     7
 0.0000000003     1     5     6     8
 -0.0000000010     1     5     6     9
 0.0000000001     1     5     7     6
 0.0035493442     1     5     7     7
 0.0000000010     1     5     7     8
 0.0000000003     1     5     7     9
 -0.0000000001     1     5     8     6
 -0.0000000003     1     5     8     7
 0.0029362108     1     5     8     8
 0.0000000003     1     5     9     6
 -0.0000000001     1     5     9     7
 0.0029362107     1     5     9     9
 0.0000206805     1     5    10     1
 -0.2901100369     1     5    10     2
 0.0000005924     1     5    10     3
 0.0173976502     1     5    10     4
 0.0076302363     1     5    10    10
 0.0000154035     1     6     2     8
 -0.0000474079     1     6     2     9
 -0.0000000117     1     6     3     8
 0.0000000359     1     6     3     9
 -0.0000015553     1     6     4     8
 0.0000047869     1     6     4     9
 0.0000000036     1     6     5     8
 -0.0000000111     1     6     5     9
 -0.5665437714     1     6     6     1
 0.0000000092     1     6     6     2
 -0.0206816963     1     6     6     3
 -0.0000007471     1     6     6     4
 -0.0035493442     1     6     6     5
 -0.0000000613     1     6     6    10
 -0.0000000014     1     6     7     1
 -0.0000000001     1     6     7     3
 -0.0000000001     1     6     7     5
 0.0000067710     1     6     8     1
 -0.0949943878     1     6     8     2
 0.0000001932     1     6     8     3
 0.0056075974     1     6     8     4
 0.0000000001     1     6     8     5
 0.0015587720     1     6     8    10
 -0.0000208393     1     6     9     1
 0.2923681979     1     6     9     2
 -0.0000005947     1     6     9     3
 -0.0172587374     1     6     9     4
 -0.0000000003     1     6     9     5
 -0.0047974979     1     6     9    10
 0.0000388377     1     6    10     8
 -0.0001195323     1     6    10     9
 0.0000474079     1     7     2     8
 0.0000154035     1     7     2     9
 -0.0000000359     1     7     3     8
 -0.0000000117     1     7     3     9
 -0.0000047869     1     7     4     8
 -0.0000015553     1     7     4     9
 0.0000000111     1     7     5     8
 0.0000000036     1     7     5     9
 -0.0000000014     1     7     6     1
 -0.0000000001     1     7     6     3
 -0.0000000001     1     7     6     5
 -0.5665437717     1     7     7     1
 0.0000000092     1     7     7     2
 -0.0206816963     1     7     7     3
 -0.0000007471     1     7     7     4
 -0.0035493442     1     7     7     5
 -0.0000000613     1     7     7    10
 0.0000208393     1     7     8     1
 -0.2923681984     1     7     8     2
 0.0000005947     1     7     8     3
 0.0172587373     1     7     8     4
 0.0000000003     1     7     8     5
 0.0047974978     1     7     8    10
 0.0000067710     1     7     9     1
 -0.0949943869     1     7     9     2
 0.0000001932     1     7     9     3
 0.0056075977     1     7     9     4
 0.0000000001     1     7     9     5
 0.0015587720     1     7     9    10
 0.0001195323     1     7    10     8
 0.0000388377     1     7    10     9
 -0.0000154035     1     8     2     6
 -0.0000474079     1     8     2     7
 0.0000000117     1     8     3     6
 0.0000000359     1     8     3     7
 0.0000015553     1     8     4     6
 0.0000047869     1     8     4     7
 -0.0000000036     1     8     5     6
 -0.0000000111     1     8     5     7
 0.0000067710     1     8     6     1
 -0.0950096361     1     8     6     2
 0.0000002130     1     8     6     3
 0.0058736003     1     8     6     4
 -0.0000000003     1     8     6     5
 0.0016216613     1     8     6    10
 0.0000208393     1     8     7     1
 -0.2924151285     1     8     7     2
 0.0000006554     1     8     7     3
 0.0180774257     1     8     7     4
 -0.0000000010     1     8     7     5
 0.0049910546     1     8     7    10
 -0.5493458645     1     8     8     1
 -0.0000000068     1     8     8     2
 -0.0178250489     1     8     8     3
 -0.0000006753     1     8     8     4
 -0.0029362108     1     8     8     5
 -0.0000000838     1     8     8    10
 -0.0000000001     1     8     9     1
 -0.0000388377     1     8    10     6
 -0.0001195323     1     8    10     7
 0.0000474079     1     9     2     6
 -0.0000154035     1     9     2     7
 -0.0000000359     1     9     3     6
 0.0000000117     1     9     3     7
 -0.0000047869     1     9     4     6
 0.0000015553     1     9     4     7
 0.0000000111     1     9     5     6
 -0.0000000036     1     9     5     7
 -0.0000208393     1     9     6     1
 0.2924151279     1     9     6     2
 -0.0000006554     1     9     6     3
 -0.0180774259     1     9     6     4
 0.0000000010     1     9     6     5
 -0.0049910547     1     9     6    10
 0.0000067710     1     9     7     1
 -0.0950096352     1     9     7     2
 0.0000002130     1     9     7     3
 0.0058736007     1     9     7     4
 -0.0000000003     1     9     7     5
 0.0016216613     1     9     7    10
 -0.0000000001     1     9     8     1
 -0.5493458647     1     9     9     1
 -0.0000000068     1     9     9     2
 -0.0178250489     1     9     9     3
 -0.0000006753     1     9     9     4
 -0.0029362107     1     9     9     5
 -0.0000000838     1     9     9    10
 0.0001195323     1     9    10     6
 -0.0000388377     1     9    10     7
 -0.0033368363     1    10     2     1
 -0.0000001189     1    10     2     2
 0.0000140597     1    10     2     3
 -0.0001028666     1    10     2     5
 -0.0000033427     1    10     3     1
 0.0468847932     1    10     3     2
 -0.0000001022     1    10     3     3
 0.0011258766     1    10     3     4
 0.0000000848     1    10     3     5
 -0.0357322627     1    10     4     1
 -0.0000000020     1    10     4     2
 0.0034769179     1    10     4     3
 0.0000000243     1    10     4     4
 0.0007589115     1    10     4     5
 0.0000206805     1    10     5     1
 -0.2902120842     1    10     5     2
 0.0000007088     1    10     5     3
 0.0192677948     1    10     5     4
 0.0000000244     1    10     5     5
 0.0000000613     1    10     6     6
 -0.0016216613     1    10     6     8
 0.0049910547     1    10     6     9
 0.0000000613     1    10     7     7
 -0.0049910546     1    10     7     8
 -0.0016216613     1    10     7     9
 -0.0015587720     1    10     8     6
 -0.0047974978     1    10     8     7
 0.0000000838     1    10     8     8
 0.0047974979     1    10     9     6
 -0.0015587720     1    10     9     7
 0.0000000838     1    10     9     9
 -0.5793294302     1    10    10     1
 -0.0000000068     1    10    10     2
 -0.0188093792     1    10    10     3
 -0.0000007419     1    10    10     4
 -0.0076302363     1    10    10     5
 -0.2300647663     2     1     1     2
 0.0000000096     2     1     1     3
 0.0003527033     2     1     1     4
 -0.0000001275     2     1     1     5
 -0.0033368363     2     1     1    10
 0.0002668004     2     1     3     2
 -0.0000000331     2     1     3     3
 -0.3391602401     2     1     3     4
 -0.0000000030     2     1     3     5
 -0.0468707332     2     1     3    10
 -0.0000000126     2     1     4     2
 -0.3391489312     2     1     4     3
 0.0000000315     2     1     4     4
 -0.0817927601     2     1     4     5
 0.0000000020     2     1     4    10
 -0.0035784573     2     1     5     2
 -0.0000000030     2     1     5     3
 -0.0817769197     2     1     5     4
 -0.0000000089     2     1     5     5
 0.2901100369     2     1     5    10
 -0.0000000092     2     1     6     6
 0.0949943878     2     1     6     8
 -0.2923681979     2     1     6     9
 -0.0000000092     2     1     7     7
 0.2923681984     2     1     7     8
 0.0949943869     2     1     7     9
 0.0950096361     2     1     8     6
 0.2924151285     2     1     8     7
 0.0000000068     2     1     8     8
 -0.2924151279     2     1     9     6
 0.0950096352     2     1     9     7
 0.0000000068     2     1     9     9
 0.0000001189     2     1    10     2
 -0.0468847932     2     1    10     3
 0.0000000020     2     1    10     4
 0.2902120842     2     1    10     5
 0.0000000068     2     1    10    10
 0.2300647663     2     2     1     1
 -0.0002668004     2     2     1     3
 0.0000000126     2     2     1     4
 0.0035784573     2     2     1     5
 -0.0000001189     2     2     1    10
 -0.0002668004     2     2     3     1
 0.5670903698     2     2     3     3
 -0.0000241708     2     2     3     4
 -0.0110147521     2     2     3     5
 -0.0000033393     2     2     3    10
 0.0000000126     2     2     4     1
 -0.0000241708     2     2     4     3
 0.5746822949     2     2     4     4
 -0.0000058288     2     2     4     5
 0.0357309158     2     2     4    10
 0.0035784573     2     2     5     1
 -0.0110147521     2     2     5     3
 -0.0000058288     2     2     5     4
 0.5654026135     2     2     5     5
 0.0000206798     2     2     5    10
 0.5666024361     2     2     6     6
 0.0000000014     2     2     6     7
 0.0000067708     2     2     6     8
 -0.0000208389     2     2     6     9
 0.0000000014     2     2     7     6
 0.5666024365     2     2     7     7
 0.0000208388     2     2     7     8
 0.0000067709     2     2     7     9
 0.0000067708     2     2     8     6
 0.0000208388     2     2     8     7
 0.5493067659     2     2     8     8
 0.0000000001     2     2     8     9
 -0.0000208389     2     2     9     6
 0.0000067709     2     2     9     7
 0.0000000001     2     2     9     8
 0.5493067661     2     2     9     9
 -0.0000001189     2     2    10     1
 -0.0000033393     2     2    10     3
 0.0357309158     2     2    10     4
 0.0000206798     2     2    10     5
 0.5792284316     2     2    10    10
 -0.0000000096     2     3     1     1
 0.0002668004     2     3     1     2
 -0.0000111737     2     3     1     4
 0.0000140597     2     3     1    10
 0.0000000331     2     3     3     1
 -0.5670903698     2     3     3     2
 0.0002525950     2     3     3     4
 -0.0000000998     2     3     3     5
 -0.0028757127     2     3     3    10
 0.3391489312     2     3     4     1
 0.0000241708     2     3     4     2
 0.0000000191     2     3     4     4
 -0.0036448562     2     3     4     5
 -0.0000001237     2     3     4    10
 0.0000000030     2     3     5     1
 0.0110147521     2     3     5     2
 -0.0026810712     2     3     5     4
 0.0000007153     2     3     5     5
 0.0198616191     2     3     5    10
 0.0000007355     2     3     6     6
 0.0059678816     2     3     6     8
 -0.0183675996     2     3     6     9
 0.0000007355     2     3     7     7
 0.0183675994     2     3     7     8
 0.0059678820     2     3     7     9
 0.0054139392     2     3     8     6
 0.0166627072     2     3     8     7
 0.0000006345     2     3     8     8
 -0.0166627073     2     3     9     6
 0.0054139393     2     3     9     7
 0.0000006345     2     3     9     9
 0.0468847932     2     3    10     1
 0.0000033393     2     3    10     2
 -0.0000000790     2     3    10     4
 0.0165976202     2     3    10     5
 0.0000006694     2     3    10    10
 -0.0003527033     2     4     1     1
 -0.0000000126     2     4     1     2
 0.0000111737     2     4     1     3
 -0.0000152645     2     4     1     5
 0.3391602401     2     4     3     1
 0.0000241708     2     4     3     2
 -0.0002525950     2     4     3     3
 -0.0009360193     2     4     3     5
 -0.0000000399     2     4     3    10
 -0.0000000315     2     4     4     1
 -0.5746822949     2     4     4     2
 -0.0000000191     2     4     4     3
 0.0000000218     2     4     4     5
 0.0006869755     2     4     4    10
 0.0817769197     2     4     5     1
 0.0000058288     2     4     5     2
 0.0026810712     2     4     5     3
 -0.0195965642     2     4     5     5
 -0.0000006875     2     4     5    10
 -0.0209794295     2     4     6     6
 -0.0000002096     2     4     6     8
 0.0000006450     2     4     6     9
 -0.0209794295     2     4     7     7
 -0.0000006450     2     4     7     8
 -0.0000002096     2     4     7     9
 -0.0000002001     2     4     8     6
 -0.0000006158     2     4     8     7
 -0.0189802032     2     4     8     8
 0.0000006158     2     4     9     6
 -0.0000002001     2     4     9     7
 -0.0189802032     2     4     9     9
 -0.0000000020     2     4    10     1
 -0.0357309158     2     4    10     2
 0.0000000790     2     4    10     3
 -0.0000006207     2     4    10     5
 -0.0208490060     2     4    10    10
 0.0000001275     2     5     1     1
 -0.0035784573     2     5     1     2
 0.0000152645     2     5     1     4
 -0.0001028666     2     5     1    10
 0.0000000030     2     5     3     1
 0.0110147521     2     5     3     2
 0.0000000998     2     5     3     3
 0.0009360193     2     5     3     4
 0.0023773969     2     5     3    10
 0.0817927601     2     5     4     1
 0.0000058288     2     5     4     2
 0.0036448562     2     5     4     3
 -0.0000000218     2     5     4     4
 -0.0000000272     2     5     4    10
 0.0000000089     2     5     5     1
 -0.5654026135     2     5     5     2
 -0.0000007153     2     5     5     3
 0.0195965642     2     5     5     4
 0.0006840605     2     5     5    10
 0.0000001265     2     5     6     6
 -0.0000085528     2     5     6     8
 0.0000263232     2     5     6     9
 0.0000001265     2     5     7     7
 -0.0000263233     2     5     7     8
 -0.0000085527     2     5     7     9
 0.0000035732     2     5     8     6
 0.0000109976     2     5     8     7
 0.0000001046     2     5     8     8
 -0.0000109976     2     5     9     6
 0.0000035732     2     5     9     7
 0.0000001046     2     5     9     9
 -0.2902120842     2     5    10     1
 -0.0000206798     2     5    10     2
 -0.0165976202     2     5    10     3
 0.0000006207     2     5    10     4
 0.0000002719     2     5    10    10
 -0.0000154035     2     6     1     8
 0.0000474079     2     6     1     9
 0.0003279151     2     6     3     8
 -0.0010092377     2     6     3     9
 0.0000000002     2     6     4     9
 -0.0001010027     2     6     5     8
 0.0003108602     2     6     5     9
 0.0000000092     2     6     6     1
 -0.5666024361     2     6     6     2
 -0.0000007355     2     6     6     3
 0.0209794295     2     6     6     4
 -0.0000001265     2     6     6     5
 0.0017158859     2     6     6    10
 -0.0000000014     2     6     7     2
 -0.0950096361     2     6     8     1
 -0.0000067708     2     6     8     2
 -0.0054139392     2     6     8     3
 0.0000002001     2     6     8     4
 -0.0000035732     2     6     8     5
 0.0000000555     2     6     8    10
 0.2924151279     2     6     9     1
 0.0000208389     2     6     9     2
 0.0166627073     2     6     9     3
 -0.0000006158     2     6     9     4
 0.0000109976     2     6     9     5
 -0.0000001709     2     6     9    10
 0.0000000014     2     6    10     8
 -0.0000000042     2     6    10     9
 -0.0000474079     2     7     1     8
 -0.0000154035     2     7     1     9
 0.0010092378     2     7     3     8
 0.0003279151     2     7     3     9
 -0.0000000002     2     7     4     8
 -0.0003108603     2     7     5     8
 -0.0001010027     2     7     5     9
 -0.0000000014     2     7     6     2
 0.0000000092     2     7     7     1
 -0.5666024365     2     7     7     2
 -0.0000007355     2     7     7     3
 0.0209794295     2     7     7     4
 -0.0000001265     2     7     7     5
 0.0017158859     2     7     7    10
 -0.2924151285     2     7     8     1
 -0.0000208388     2     7     8     2
 -0.0166627072     2     7     8     3
 0.0000006158     2     7     8     4
 -0.0000109976     2     7     8     5
 0.0000001709     2     7     8    10
 -0.0950096352     2     7     9     1
 -0.0000067709     2     7     9     2
 -0.0054139393     2     7     9     3
 0.0000002001     2     7     9     4
 -0.0000035732     2     7     9     5
 0.0000000555     2     7     9    10
 0.0000000042     2     7    10     8
 0.0000000014     2     7    10     9
 0.0000154035     2     8     1     6
 0.0000474079     2     8     1     7
 -0.0003279151     2     8     3     6
 -0.0010092378     2     8     3     7
 0.0000000002     2     8     4     7
 0.0001010027     2     8     5     6
 0.0003108603     2     8     5     7
 -0.0949943878     2     8     6     1
 -0.0000067708     2     8     6     2
 -0.0059678816     2     8     6     3
 0.0000002096     2     8     6     4
 0.0000085528     2     8     6     5
 0.0000000577     2     8     6    10
 -0.2923681984     2     8     7     1
 -0.0000208388     2     8     7     2
 -0.0183675994     2     8     7     3
 0.0000006450     2     8     7     4
 0.0000263233     2     8     7     5
 0.0000001778     2     8     7    10
 -0.0000000068     2     8     8     1
 -0.5493067659     2     8     8     2
 -0.0000006345     2     8     8     3
 0.0189802032     2     8     8     4
 -0.0000001046     2     8     8     5
 0.0023534480     2     8     8    10
 -0.0000000001     2     8     9     2
 -0.0000000014     2     8    10     6
 -0.0000000042     2     8    10     7
 -0.0000474079     2     9     1     6
 0.0000154035     2     9     1     7
 0.0010092377     2     9     3     6
 -0.0003279151     2     9     3     7
 -0.0000000002     2     9     4     6
 -0.0003108602     2     9     5     6
 0.0001010027     2     9     5     7
 0.2923681979     2     9     6     1
 0.0000208389     2     9     6     2
 0.0183675996     2     9     6     3
 -0.0000006450     2     9     6     4
 -0.0000263232     2     9     6     5
 -0.0000001778     2     9     6    10
 -0.0949943869     2     9     7     1
 -0.0000067709     2     9     7     2
 -0.0059678820     2     9     7     3
 0.0000002096     2     9     7     4
 0.0000085527     2     9     7     5
 0.0000000577     2     9     7    10
 -0.0000000001     2     9     8     2
 -0.0000000068     2     9     9     1
 -0.5493067661     2     9     9     2
 -0.0000006345     2     9     9     3
 0.0189802032     2     9     9     4
 -0.0000001046     2     9     9     5
 0.0023534480     2     9     9    10
 0.0000000042     2     9    10     6
 -0.0000000014     2     9    10     7
 0.0033368363     2    10     1     1
 0.0000001189     2    10     1     2
 -0.0000140597     2    10     1     3
 0.0001028666     2    10     1     5
 0.0468707332     2    10     3     1
 0.0000033393     2    10     3     2
 0.0028757127     2    10     3     3
 0.0000000399     2    10     3     4
 -0.0023773969     2    10     3     5
 -0.0000000020     2    10     4     1
 -0.0357309158     2    10     4     2
 0.0000001237     2    10     4     3
 -0.0006869755     2    10     4     4
 0.0000000272     2    10     4     5
 -0.2901100369     2    10     5     1
 -0.0000206798     2    10     5     2
 -0.0198616191     2    10     5     3
 0.0000006875     2    10     5     4
 -0.0006840605     2    10     5     5
 -0.0017158859     2    10     6     6
 -0.0000000577     2    10     6     8
 0.0000001778     2    10     6     9
 -0.0017158859     2    10     7     7
 -0.0000001778     2    10     7     8
 -0.0000000577     2    10     7     9
 -0.0000000555     2    10     8     6
 -0.0000001709     2    10     8     7
 -0.0023534480     2    10     8     8
 0.0000001709     2    10     9     6
 -0.0000000555     2    10     9     7
 -0.0023534480     2    10     9     9
 -0.0000000068     2    10    10     1
 -0.5792284316     2    10    10     2
 -0.0000006694     2    10    10     3
 0.0208490060     2    10    10     4
 -0.0000002719     2    10    10     5
 0.0000000096     3     1     1     2
 -0.5671025066     3     1     1     3
 -0.0000241731     3     1     1     4
 0.0110170774     3     1     1     5
 -0.0000033427     3     1     1    10
 -0.0002668004     3     1     2     2
 0.0000000331     3     1     2     3
 0.3391602401     3     1     2     4
 0.0000000030     3     1     2     5
 0.0468707332     3     1     2    10
 0.0000111737     3     1     4     2
 -0.0000000090     3     1     4     3
 0.0005352208     3     1     4     4
 0.0000000956     3     1     4     5
 -0.0022179073     3     1     4    10
 -0.0027952876     3     1     5     3
 0.0000001301     3     1     5     4
 0.0201106959     3     1     5     5
 -0.0000005924     3     1     5    10
 0.0206816963     3     1     6     6
 0.0000000001     3     1     6     7
 -0.0000001932     3     1     6     8
 0.0000005947     3     1     6     9
 0.0000000001     3     1     7     6
 0.0206816963     3     1     7     7
 -0.0000005947     3     1     7     8
 -0.0000001932     3     1     7     9
 -0.0000002130     3     1     8     6
 -0.0000006554     3     1     8     7
 0.0178250489     3     1     8     8
 0.0000006554     3     1     9     6
 -0.0000002130     3     1     9     7
 0.0178250489     3     1     9     9
 -0.0000140597     3     1    10     2
 0.0000001022     3     1    10     3
 -0.0034769179     3     1    10     4
 -0.0000007088     3     1    10     5
 0.0188093792     3     1    10    10
 -0.0000000096     3     2     1     1
 0.0000000331     3     2     1     3
 0.3391489312     3     2     1     4
 0.0000000030     3     2     1     5
 0.0468847932     3     2     1    10
 0.0002668004     3     2     2     1
 -0.5670903698     3     2     2     3
 0.0000241708     3     2     2     4
 0.0110147521     3     2     2     5
 0.0000033393     3     2     2    10
 -0.0000111737     3     2     4     1
 0.0002525950     3     2     4     3
 0.0000000191     3     2     4     4
 -0.0026810712     3     2     4     5
 -0.0000000790     3     2     4    10
 -0.0000000998     3     2     5     3
 -0.0036448562     3     2     5     4
 0.0000007153     3     2     5     5
 0.0165976202     3     2     5    10
 0.0000007355     3     2     6     6
 0.0054139392     3     2     6     8
 -0.0166627073     3     2     6     9
 0.0000007355     3     2     7     7
 0.0166627072     3     2     7     8
 0.0054139393     3     2     7     9
 0.0059678816     3     2     8     6
 0.0183675994     3     2     8     7
 0.0000006345     3     2     8     8
 -0.0183675996     3     2     9     6
 0.0059678820     3     2     9     7
 0.0000006345     3     2     9     9
 0.0000140597     3     2    10     1
 -0.0028757127     3     2    10     3
 -0.0000001237     3     2    10     4
 0.0198616191     3     2    10     5
 0.0000006694     3     2    10    10
 0.5671025066     3     3     1     1
 -0.0000000331     3     3     1     2
 0.0000000090     3     3     1     4
 0.0027952876     3     3     1     5
 -0.0000001022     3     3     1    10
 -0.0000000331     3     3     2     1
 0.5670903698     3     3     2     2
 -0.0002525950     3     3     2     4
 0.0000000998     3     3     2     5
 0.0028757127     3     3     2    10
 0.0000000090     3     3     4     1
 -0.0002525950     3     3     4     2
 0.2275860280     3     3     4     4
 0.0000000032     3     3     4     5
 0.0122477567     3     3     4    10
 0.0027952876     3     3     5     1
 0.0000000998     3     3     5     2
 0.0000000032     3     3     5     4
 0.3721775674     3     3     5     5
 -0.0000000132     3     3     5    10
 0.3733273825     3     3     6     6
 0.0000000007     3     3     6     7
 -0.0000000044     3     3     6     8