&FCI NORB= 10,NELEC= 14,MS2=0,
 ORBSYM=1,1,1,1,1,1,1,1,1,1
 ISYM=1,
&END
 0.2204750049     1     1     2     2
 -0.0000000010     1     1     2     3
 0.0002829267     1     1     2     4
 0.0000000166     1     1     2     5
 -0.0030383948     1     1     2    10
 -0.0000000010     1     1     3     2
 0.5622149774     1     1     3     3
 -0.0000034709     1     1     3     4
 -0.0097849535     1     1     3     5
 -0.0000004088     1     1     3    10
 0.0002829267     1     1     4     2
 -0.0000034709     1     1     4     3
 0.5698715130     1     1     4     4
 -0.0000007302     1     1     4     5
 0.0328554876     1     1     4    10
 0.0000000166     1     1     5     2
 -0.0097849535     1     1     5     3
 -0.0000007302     1     1     5     4
 0.5605005664     1     1     5     5
 0.0000029955     1     1     5    10
 0.5639518361     1     1     6     6
 0.0000000003     1     1     6     7
 -0.0000012910     1     1     6     8
 0.0000028760     1     1     6     9
 0.0000000003     1     1     7     6
 0.5639518332     1     1     7     7
 0.0000028761     1     1     7     8
 0.0000012910     1     1     7     9
 -0.0000012910     1     1     8     6
 0.0000028761     1     1     8     7
 0.5446789225     1     1     8     8
 0.0000000001     1     1     8     9
 0.0000028760     1     1     9     6
 0.0000012910     1     1     9     7
 0.0000000001     1     1     9     8
 0.5446789223     1     1     9     9
 -0.0030383948     1     1    10     2
 -0.0000004088     1     1    10     3
 0.0328554876     1     1    10     4
 0.0000029955     1     1    10     5
 0.5723701762     1     1    10    10
 -0.2204750049     1     2     2     1
 -0.0002133015     1     2     2     3
 -0.0000000015     1     2     2     4
 0.0033006264     1     2     2     5
 0.0000000153     1     2     2    10
 0.0000000010     1     2     3     1
 0.0000000050     1     2     3     3
 -0.3447292877     1     2     3     4
 0.0000000006     1     2     3     5
 -0.0405884940     1     2     3    10
 -0.0002829267     1     2     4     1
 -0.3447406823     1     2     4     3
 -0.0000000048     1     2     4     4
 -0.0724968981     1     2     4     5
 -0.0000000003     1     2     4    10
 -0.0000000166     1     2     5     1
 0.0000000006     1     2     5     3
 -0.0725099024     1     2     5     4
 0.0000000012     1     2     5     5
 0.2975609933     1     2     5    10
 0.0000000012     1     2     6     6
 -0.1282395654     1     2     6     8
 0.2856840895     1     2     6     9
 0.0000000012     1     2     7     7
 0.2856840890     1     2     7     8
 0.1282395653     1     2     7     9
 -0.1282219770     1     2     8     6
 0.2856449068     1     2     8     7
 -0.0000000009     1     2     8     8
 0.2856449073     1     2     9     6
 0.1282219770     1     2     9     7
 -0.0000000009     1     2     9     9
 0.0030383948     1     2    10     1
 -0.0405760808     1     2    10     3
 -0.0000000003     1     2    10     4
 0.2974714349     1     2    10     5
 -0.0000000009     1     2    10    10
 0.0000000010     1     3     2     1
 0.0002133015     1     3     2     2
 0.0000113106     1     3     2     4
 -0.0000124036     1     3     2    10
 -0.5622149774     1     3     3     1
 -0.0000000050     1     3     3     2
 -0.0000000011     1     3     3     4
 0.0024124666     1     3     3     5
 0.0000000124     1     3     3    10
 0.0000034709     1     3     4     1
 0.3447406823     1     3     4     2
 -0.0004579950     1     3     4     4
 0.0000000166     1     3     4     5
 0.0031371079     1     3     4    10
 0.0097849535     1     3     5     1
 -0.0000000006     1     3     5     2
 0.0000000114     1     3     5     4
 -0.0201834153     1     3     5     5
 -0.0000001001     1     3     5    10
 -0.0209022462     1     3     6     6
 0.0000000401     1     3     6     8
 -0.0000000892     1     3     6     9
 -0.0209022460     1     3     7     7
 -0.0000000892     1     3     7     8
 -0.0000000401     1     3     7     9
 0.0000000366     1     3     8     6
 -0.0000000815     1     3     8     7
 -0.0178331532     1     3     8     8
 -0.0000000815     1     3     9     6
 -0.0000000366     1     3     9     7
 -0.0178331531     1     3     9     9
 0.0000004088     1     3    10     1
 0.0405760808     1     3    10     2
 0.0019131104     1     3    10     4
 -0.0000000850     1     3    10     5
 -0.0188490003     1     3    10    10
 -0.0002829267     1     4     2     1
 0.0000000015     1     4     2     2
 -0.0000113106     1     4     2     3
 0.0000125080     1     4     2     5
 0.0000034709     1     4     3     1
 0.3447292877     1     4     3     2
 0.0000000011     1     4     3     3
 0.0000000052     1     4     3     5
 0.0011217926     1     4     3    10
 -0.5698715130     1     4     4     1
 0.0000000048     1     4     4     2
 0.0004579950     1     4     4     3
 -0.0004555385     1     4     4     5
 -0.0000000026     1     4     4    10
 0.0000007302     1     4     5     1
 0.0725099024     1     4     5     2
 -0.0000000114     1     4     5     3
 0.0000000992     1     4     5     5
 0.0192974319     1     4     5    10
 0.0000001065     1     4     6     6
 -0.0078516031     1     4     6     8
 0.0174913107     1     4     6     9
 0.0000001065     1     4     7     7
 0.0174913112     1     4     7     8
 0.0078516032     1     4     7     9
 -0.0074941167     1     4     8     6
 0.0166949250     1     4     8     7
 0.0000000946     1     4     8     8
 0.0166949247     1     4     9     6
 0.0074941168     1     4     9     7
 0.0000000946     1     4     9     9
 -0.0328554876     1     4    10     1
 0.0000000003     1     4    10     2
 -0.0019131104     1     4    10     3
 0.0176284831     1     4    10     5
 0.0000001035     1     4    10    10
 -0.0000000166     1     5     2     1
 -0.0033006264     1     5     2     2
 -0.0000125080     1     5     2     4
 0.0000901188     1     5     2    10
 0.0097849535     1     5     3     1
 -0.0000000006     1     5     3     2
 -0.0024124666     1     5     3     3
 -0.0000000052     1     5     3     4
 -0.0000000108     1     5     3    10
 0.0000007302     1     5     4     1
 0.0724968981     1     5     4     2
 -0.0000000166     1     5     4     3
 0.0004555385     1     5     4     4
 0.0006196337     1     5     4    10
 -0.5605005664     1     5     5     1
 -0.0000000012     1     5     5     2
 0.0201834153     1     5     5     3
 -0.0000000992     1     5     5     4
 -0.0000000024     1     5     5    10
 -0.0031381026     1     5     6     6
 -0.0000000002     1     5     6     8
 0.0000000006     1     5     6     9
 -0.0031381024     1     5     7     7
 0.0000000006     1     5     7     8
 0.0000000002     1     5     7     9
 -0.0000000004     1     5     8     6
 0.0000000010     1     5     8     7
 -0.0025768374     1     5     8     8
 0.0000000009     1     5     9     6
 0.0000000004     1     5     9     7
 -0.0025768374     1     5     9     9
 -0.0000029955     1     5    10     1
 -0.2974714349     1     5    10     2
 0.0000000850     1     5    10     3
 -0.0176284831     1     5    10     4
 -0.0068460903     1     5    10    10
 -0.0000179280     1     6     2     8
 0.0000399389     1     6     2     9
 0.0000000020     1     6     3     8
 -0.0000000045     1     6     3     9
 -0.0000223729     1     6     4     8
 0.0000498407     1     6     4     9
 -0.0000000005     1     6     5     8
 0.0000000011     1     6     5     9
 -0.5639518361     1     6     6     1
 -0.0000000012     1     6     6     2
 0.0209022462     1     6     6     3
 -0.0000001065     1     6     6     4
 0.0031381026     1     6     6     5
 -0.0000000077     1     6     6    10
 -0.0000000003     1     6     7     1
 0.0000012910     1     6     8     1
 0.1282219770     1     6     8     2
 -0.0000000366     1     6     8     3
 0.0074941167     1     6     8     4
 0.0000000004     1     6     8     5
 0.0018682686     1     6     8    10
 -0.0000028760     1     6     9     1
 -0.2856449073     1     6     9     2
 0.0000000815     1     6     9     3
 -0.0166949247     1     6     9     4
 -0.0000000009     1     6     9     5
 -0.0041620121     1     6     9    10
 0.0000505300     1     6    10     8
 -0.0001125677     1     6    10     9
 0.0000399388     1     7     2     8
 0.0000179280     1     7     2     9
 -0.0000000045     1     7     3     8
 -0.0000000020     1     7     3     9
 0.0000498407     1     7     4     8
 0.0000223728     1     7     4     9
 0.0000000011     1     7     5     8
 0.0000000005     1     7     5     9
 -0.0000000003     1     7     6     1
 -0.5639518332     1     7     7     1
 -0.0000000012     1     7     7     2
 0.0209022460     1     7     7     3
 -0.0000001065     1     7     7     4
 0.0031381024     1     7     7     5
 -0.0000000077     1     7     7    10
 -0.0000028761     1     7     8     1
 -0.2856449068     1     7     8     2
 0.0000000815     1     7     8     3
 -0.0166949250     1     7     8     4
 -0.0000000010     1     7     8     5
 -0.0041620122     1     7     8    10
 -0.0000012910     1     7     9     1
 -0.1282219770     1     7     9     2
 0.0000000366     1     7     9     3
 -0.0074941168     1     7     9     4
 -0.0000000004     1     7     9     5
 -0.0018682687     1     7     9    10
 -0.0001125677     1     7    10     8
 -0.0000505300     1     7    10     9
 0.0000179280     1     8     2     6
 -0.0000399388     1     8     2     7
 -0.0000000020     1     8     3     6
 0.0000000045     1     8     3     7
 0.0000223729     1     8     4     6
 -0.0000498407     1     8     4     7
 0.0000000005     1     8     5     6
 -0.0000000011     1     8     5     7
 0.0000012910     1     8     6     1
 0.1282395654     1     8     6     2
 -0.0000000401     1     8     6     3
 0.0078516031     1     8     6     4
 0.0000000002     1     8     6     5
 0.0019472035     1     8     6    10
 -0.0000028761     1     8     7     1
 -0.2856840890     1     8     7     2
 0.0000000892     1     8     7     3
 -0.0174913112     1     8     7     4
 -0.0000000006     1     8     7     5
 -0.0043378583     1     8     7    10
 -0.5446789225     1     8     8     1
 0.0000000009     1     8     8     2
 0.0178331532     1     8     8     3
 -0.0000000946     1     8     8     4
 0.0025768374     1     8     8     5
 -0.0000000101     1     8     8    10
 -0.0000000001     1     8     9     1
 -0.0000505300     1     8    10     6
 0.0001125677     1     8    10     7
 -0.0000399389     1     9     2     6
 -0.0000179280     1     9     2     7
 0.0000000045     1     9     3     6
 0.0000000020     1     9     3     7
 -0.0000498407     1     9     4     6
 -0.0000223728     1     9     4     7
 -0.0000000011     1     9     5     6
 -0.0000000005     1     9     5     7
 -0.0000028760     1     9     6     1
 -0.2856840895     1     9     6     2
 0.0000000892     1     9     6     3
 -0.0174913107     1     9     6     4
 -0.0000000006     1     9     6     5
 -0.0043378581     1     9     6    10
 -0.0000012910     1     9     7     1
 -0.1282395653     1     9     7     2
 0.0000000401     1     9     7     3
 -0.0078516032     1     9     7     4
 -0.0000000002     1     9     7     5
 -0.0019472035     1     9     7    10
 -0.0000000001     1     9     8     1
 -0.5446789223     1     9     9     1
 0.0000000009     1     9     9     2
 0.0178331531     1     9     9     3
 -0.0000000946     1     9     9     4
 0.0025768374     1     9     9     5
 -0.0000000101     1     9     9    10
 0.0001125677     1     9    10     6
 0.0000505300     1     9    10     7
 0.0030383948     1    10     2     1
 -0.0000000153     1    10     2     2
 0.0000124036     1    10     2     3
 -0.0000901188     1    10     2     5
 0.0000004088     1    10     3     1
 0.0405884940     1    10     3     2
 -0.0000000124     1    10     3     3
 -0.0011217926     1    10     3     4
 0.0000000108     1    10     3     5
 -0.0328554876     1    10     4     1
 0.0000000003     1    10     4     2
 -0.0031371079     1    10     4     3
 0.0000000026     1    10     4     4
 -0.0006196337     1    10     4     5
 -0.0000029955     1    10     5     1
 -0.2975609933     1    10     5     2
 0.0000001001     1    10     5     3
 -0.0192974319     1    10     5     4
 0.0000000024     1    10     5     5
 0.0000000077     1    10     6     6
 -0.0019472035     1    10     6     8
 0.0043378581     1    10     6     9
 0.0000000077     1    10     7     7
 0.0043378583     1    10     7     8
 0.0019472035     1    10     7     9
 -0.0018682686     1    10     8     6
 0.0041620122     1    10     8     7
 0.0000000101     1    10     8     8
 0.0041620121     1    10     9     6
 0.0018682687     1    10     9     7
 0.0000000101     1    10     9     9
 -0.5723701762     1    10    10     1
 0.0000000009     1    10    10     2
 0.0188490003     1    10    10     3
 -0.0000001035     1    10    10     4
 0.0068460903     1    10    10     5
 -0.2204750049     2     1     1     2
 0.0000000010     2     1     1     3
 -0.0002829267     2     1     1     4
 -0.0000000166     2     1     1     5
 0.0030383948     2     1     1    10
 -0.0002133015     2     1     3     2
 0.0000000050     2     1     3     3
 -0.3447406823     2     1     3     4
 0.0000000006     2     1     3     5
 -0.0405760808     2     1     3    10
 -0.0000000015     2     1     4     2
 -0.3447292877     2     1     4     3
 -0.0000000048     2     1     4     4
 -0.0725099024     2     1     4     5
 -0.0000000003     2     1     4    10
 0.0033006264     2     1     5     2
 0.0000000006     2     1     5     3
 -0.0724968981     2     1     5     4
 0.0000000012     2     1     5     5
 0.2974714349     2     1     5    10
 0.0000000012     2     1     6     6
 -0.1282219770     2     1     6     8
 0.2856449073     2     1     6     9
 0.0000000012     2     1     7     7
 0.2856449068     2     1     7     8
 0.1282219770     2     1     7     9
 -0.1282395654     2     1     8     6
 0.2856840890     2     1     8     7
 -0.0000000009     2     1     8     8
 0.2856840895     2     1     9     6
 0.1282395653     2     1     9     7
 -0.0000000009     2     1     9     9
 0.0000000153     2     1    10     2
 -0.0405884940     2     1    10     3
 -0.0000000003     2     1    10     4
 0.2975609933     2     1    10     5
 -0.0000000009     2     1    10    10
 0.2204750049     2     2     1     1
 0.0002133015     2     2     1     3
 0.0000000015     2     2     1     4
 -0.0033006264     2     2     1     5
 -0.0000000153     2     2     1    10
 0.0002133015     2     2     3     1
 0.5622028586     2     2     3     3
 0.0000034706     2     2     3     4
 -0.0097817972     2     2     3     5
 0.0000004084     2     2     3    10
 0.0000000015     2     2     4     1
 0.0000034706     2     2     4     3
 0.5698819997     2     2     4     4
 0.0000007296     2     2     4     5
 0.0328520001     2     2     4    10
 -0.0033006264     2     2     5     1
 -0.0097817972     2     2     5     3
 0.0000007296     2     2     5     4
 0.5605964828     2     2     5     5
 -0.0000029953     2     2     5    10
 0.5640037824     2     2     6     6
 0.0000000003     2     2     6     7
 0.0000012910     2     2     6     8
 -0.0000028760     2     2     6     9
 0.0000000003     2     2     7     6
 0.5640037795     2     2     7     7
 -0.0000028760     2     2     7     8
 -0.0000012910     2     2     7     9
 0.0000012910     2     2     8     6
 -0.0000028760     2     2     8     7
 0.5446442784     2     2     8     8
 0.0000000001     2     2     8     9
 -0.0000028760     2     2     9     6
 -0.0000012910     2     2     9     7
 0.0000000001     2     2     9     8
 0.5446442782     2     2     9     9
 -0.0000000153     2     2    10     1
 0.0000004084     2     2    10     3
 0.0328520001     2     2    10     4
 -0.0000029953     2     2    10     5
 0.5722818178     2     2    10    10
 -0.0000000010     2     3     1     1
 -0.0002133015     2     3     1     2
 -0.0000113106     2     3     1     4
 0.0000124036     2     3     1    10
 -0.0000000050     2     3     3     1
 -0.5622028586     2     3     3     2
 -0.0002095484     2     3     3     4
 -0.0000000121     2     3     3     5
 0.0024686383     2     3     3    10
 0.3447292877     2     3     4     1
 -0.0000034706     2     3     4     2
 0.0000000023     2     3     4     4
 0.0033037725     2     3     4     5
 -0.0000000158     2     3     4    10
 -0.0000000006     2     3     5     1
 0.0097817972     2     3     5     2
 0.0022557576     2     3     5     4
 0.0000001014     2     3     5     5
 -0.0198619023     2     3     5    10
 0.0000001050     2     3     6     6
 0.0079471924     2     3     6     8
 -0.0177042585     2     3     6     9
 0.0000001050     2     3     7     7
 -0.0177042590     2     3     7     8
 -0.0079471926     2     3     7     9
 0.0072599344     2     3     8     6
 -0.0161732284     2     3     8     7
 0.0000000896     2     3     8     8
 -0.0161732281     2     3     9     6
 -0.0072599345     2     3     9     7
 0.0000000896     2     3     9     9
 0.0405884940     2     3    10     1
 -0.0000004084     2     3    10     2
 -0.0000000096     2     3    10     4
 -0.0168561823     2     3    10     5
 0.0000000948     2     3    10    10
 0.0002829267     2     4     1     1
 -0.0000000015     2     4     1     2
 0.0000113106     2     4     1     3
 -0.0000125080     2     4     1     5
 0.3447406823     2     4     3     1
 -0.0000034706     2     4     3     2
 0.0002095484     2     4     3     3
 0.0010248643     2     4     3     5
 -0.0000000056     2     4     3    10
 0.0000000048     2     4     4     1
 -0.5698819997     2     4     4     2
 -0.0000000023     2     4     4     3
 0.0000000023     2     4     4     5
 -0.0005160331     2     4     4    10
 0.0724968981     2     4     5     1
 -0.0000007296     2     4     5     2
 -0.0022557576     2     4     5     3
 0.0197205230     2     4     5     5
 -0.0000000973     2     4     5    10
 0.0211570902     2     4     6     6
 0.0000000396     2     4     6     8
 -0.0000000882     2     4     6     9
 0.0211570899     2     4     7     7
 -0.0000000882     2     4     7     8
 -0.0000000396     2     4     7     9
 0.0000000378     2     4     8     6
 -0.0000000841     2     4     8     7
 0.0188399674     2     4     8     8
 -0.0000000841     2     4     9     6
 -0.0000000378     2     4     9     7
 0.0188399674     2     4     9     9
 0.0000000003     2     4    10     1
 -0.0328520001     2     4    10     2
 0.0000000096     2     4    10     3
 -0.0000000888     2     4    10     5
 0.0205895690     2     4    10    10
 0.0000000166     2     5     1     1
 0.0033006264     2     5     1     2
 0.0000125080     2     5     1     4
 -0.0000901188     2     5     1    10
 -0.0000000006     2     5     3     1
 0.0097817972     2     5     3     2
 0.0000000121     2     5     3     3
 -0.0010248643     2     5     3     4
 -0.0021583565     2     5     3    10
 0.0725099024     2     5     4     1
 -0.0000007296     2     5     4     2
 -0.0033037725     2     5     4     3
 -0.0000000023     2     5     4     4
 -0.0000000031     2     5     4    10
 -0.0000000012     2     5     5     1
 -0.5605964828     2     5     5     2
 -0.0000001014     2     5     5     3
 -0.0197205230     2     5     5     4
 -0.0004737144     2     5     5    10
 0.0000000158     2     5     6     6
 -0.0000536669     2     5     6     8
 0.0001195558     2     5     6     9
 0.0000000158     2     5     7     7
 0.0001195558     2     5     7     8
 0.0000536669     2     5     7     9
 -0.0000854844     2     5     8     6
 0.0001904368     2     5     8     7
 0.0000000130     2     5     8     8
 0.0001904368     2     5     9     6
 0.0000854844     2     5     9     7
 0.0000000130     2     5     9     9
 -0.2975609933     2     5    10     1
 0.0000029953     2     5    10     2
 0.0168561823     2     5    10     3
 0.0000000888     2     5    10     4
 0.0000000345     2     5    10    10
 0.0000179280     2     6     1     8
 -0.0000399389     2     6     1     9
 0.0003963544     2     6     3     8
 -0.0008829734     2     6     3     9
 0.0000000001     2     6     4     8
 -0.0000000003     2     6     4     9
 -0.0000979948     2     6     5     8
 0.0002183066     2     6     5     9
 -0.0000000012     2     6     6     1
 -0.5640037824     2     6     6     2
 -0.0000001050     2     6     6     3
 -0.0211570902     2     6     6     4
 -0.0000000158     2     6     6     5
 -0.0015240902     2     6     6    10
 -0.0000000003     2     6     7     2
 0.1282395654     2     6     8     1
 -0.0000012910     2     6     8     2
 -0.0072599344     2     6     8     3
 -0.0000000378     2     6     8     4
 0.0000854844     2     6     8     5
 -0.0000000094     2     6     8    10
 -0.2856840895     2     6     9     1
 0.0000028760     2     6     9     2
 0.0161732281     2     6     9     3
 0.0000000841     2     6     9     4
 -0.0001904368     2     6     9     5
 0.0000000210     2     6     9    10
 -0.0000000002     2     6    10     8
 0.0000000006     2     6    10     9
 -0.0000399388     2     7     1     8
 -0.0000179280     2     7     1     9
 -0.0008829734     2     7     3     8
 -0.0003963544     2     7     3     9
 -0.0000000003     2     7     4     8
 -0.0000000001     2     7     4     9
 0.0002183066     2     7     5     8
 0.0000979948     2     7     5     9
 -0.0000000003     2     7     6     2
 -0.0000000012     2     7     7     1
 -0.5640037795     2     7     7     2
 -0.0000001050     2     7     7     3
 -0.0211570899     2     7     7     4
 -0.0000000158     2     7     7     5
 -0.0015240903     2     7     7    10
 -0.2856840890     2     7     8     1
 0.0000028760     2     7     8     2
 0.0161732284     2     7     8     3
 0.0000000841     2     7     8     4
 -0.0001904368     2     7     8     5
 0.0000000210     2     7     8    10
 -0.1282395653     2     7     9     1
 0.0000012910     2     7     9     2
 0.0072599345     2     7     9     3
 0.0000000378     2     7     9     4
 -0.0000854844     2     7     9     5
 0.0000000094     2     7     9    10
 0.0000000006     2     7    10     8
 0.0000000002     2     7    10     9
 -0.0000179280     2     8     1     6
 0.0000399388     2     8     1     7
 -0.0003963544     2     8     3     6
 0.0008829734     2     8     3     7
 -0.0000000001     2     8     4     6
 0.0000000003     2     8     4     7
 0.0000979948     2     8     5     6
 -0.0002183066     2     8     5     7
 0.1282219770     2     8     6     1
 -0.0000012910     2     8     6     2
 -0.0079471924     2     8     6     3
 -0.0000000396     2     8     6     4
 0.0000536669     2     8     6     5
 -0.0000000098     2     8     6    10
 -0.2856449068     2     8     7     1
 0.0000028760     2     8     7     2
 0.0177042590     2     8     7     3
 0.0000000882     2     8     7     4
 -0.0001195558     2     8     7     5
 0.0000000218     2     8     7    10
 0.0000000009     2     8     8     1
 -0.5446442784     2     8     8     2
 -0.0000000896     2     8     8     3
 -0.0188399674     2     8     8     4
 -0.0000000130     2     8     8     5
 -0.0020093639     2     8     8    10
 -0.0000000001     2     8     9     2
 0.0000000002     2     8    10     6
 -0.0000000006     2     8    10     7
 0.0000399389     2     9     1     6
 0.0000179280     2     9     1     7
 0.0008829734     2     9     3     6
 0.0003963544     2     9     3     7
 0.0000000003     2     9     4     6
 0.0000000001     2     9     4     7
 -0.0002183066     2     9     5     6
 -0.0000979948     2     9     5     7
 -0.2856449073     2     9     6     1
 0.0000028760     2     9     6     2
 0.0177042585     2     9     6     3
 0.0000000882     2     9     6     4
 -0.0001195558     2     9     6     5
 0.0000000218     2     9     6    10
 -0.1282219770     2     9     7     1
 0.0000012910     2     9     7     2
 0.0079471926     2     9     7     3
 0.0000000396     2     9     7     4
 -0.0000536669     2     9     7     5
 0.0000000098     2     9     7    10
 -0.0000000001     2     9     8     2
 0.0000000009     2     9     9     1
 -0.5446442782     2     9     9     2
 -0.0000000896     2     9     9     3
 -0.0188399674     2     9     9     4
 -0.0000000130     2     9     9     5
 -0.0020093639     2     9     9    10
 -0.0000000006     2     9    10     6
 -0.0000000002     2     9    10     7
 -0.0030383948     2    10     1     1
 0.0000000153     2    10     1     2
 -0.0000124036     2    10     1     3
 0.0000901188     2    10     1     5
 0.0405760808     2    10     3     1
 -0.0000004084     2    10     3     2
 -0.0024686383     2    10     3     3
 0.0000000056     2    10     3     4
 0.0021583565     2    10     3     5
 0.0000000003     2    10     4     1
 -0.0328520001     2    10     4     2
 0.0000000158     2    10     4     3
 0.0005160331     2    10     4     4
 0.0000000031     2    10     4     5
 -0.2974714349     2    10     5     1
 0.0000029953     2    10     5     2
 0.0198619023     2    10     5     3
 0.0000000973     2    10     5     4
 0.0004737144     2    10     5     5
 0.0015240902     2    10     6     6
 0.0000000098     2    10     6     8
 -0.0000000218     2    10     6     9
 0.0015240903     2    10     7     7
 -0.0000000218     2    10     7     8
 -0.0000000098     2    10     7     9
 0.0000000094     2    10     8     6
 -0.0000000210     2    10     8     7
 0.0020093639     2    10     8     8
 -0.0000000210     2    10     9     6
 -0.0000000094     2    10     9     7
 0.0020093639     2    10     9     9
 0.0000000009     2    10    10     1
 -0.5722818178     2    10    10     2
 -0.0000000948     2    10    10     3
 -0.0205895690     2    10    10     4
 -0.0000000345     2    10    10     5
 0.0000000010     3     1     1     2
 -0.5622149774     3     1     1     3
 0.0000034709     3     1     1     4
 0.0097849535     3     1     1     5
 0.0000004088     3     1     1    10
 0.0002133015     3     1     2     2
 -0.0000000050     3     1     2     3
 0.3447406823     3     1     2     4
 -0.0000000006     3     1     2     5
 0.0405760808     3     1     2    10
 0.0000113106     3     1     4     2
 -0.0000000011     3     1     4     3
 -0.0004579950     3     1     4     4
 0.0000000114     3     1     4     5
 0.0019131104     3     1     4    10
 0.0024124666     3     1     5     3
 0.0000000166     3     1     5     4
 -0.0201834153     3     1     5     5
 -0.0000000850     3     1     5    10
 -0.0209022462     3     1     6     6
 0.0000000366     3     1     6     8
 -0.0000000815     3     1     6     9
 -0.0209022460     3     1     7     7
 -0.0000000815     3     1     7     8
 -0.0000000366     3     1     7     9
 0.0000000401     3     1     8     6
 -0.0000000892     3     1     8     7
 -0.0178331532     3     1     8     8
 -0.0000000892     3     1     9     6
 -0.0000000401     3     1     9     7
 -0.0178331531     3     1     9     9
 -0.0000124036     3     1    10     2
 0.0000000124     3     1    10     3
 0.0031371079     3     1    10     4
 -0.0000001001     3     1    10     5
 -0.0188490003     3     1    10    10
 -0.0000000010     3     2     1     1
 -0.0000000050     3     2     1     3
 0.3447292877     3     2     1     4
 -0.0000000006     3     2     1     5
 0.0405884940     3     2     1    10
 -0.0002133015     3     2     2     1
 -0.5622028586     3     2     2     3
 -0.0000034706     3     2     2     4
 0.0097817972     3     2     2     5
 -0.0000004084     3     2     2    10
 -0.0000113106     3     2     4     1
 -0.0002095484     3     2     4     3
 0.0000000023     3     2     4     4
 0.0022557576     3     2     4     5
 -0.0000000096     3     2     4    10
 -0.0000000121     3     2     5     3
 0.0033037725     3     2     5     4
 0.0000001014     3     2     5     5
 -0.0168561823     3     2     5    10
 0.0000001050     3     2     6     6
 0.0072599344     3     2     6     8
 -0.0161732281     3     2     6     9
 0.0000001050     3     2     7     7
 -0.0161732284     3     2     7     8
 -0.0072599345     3     2     7     9
 0.0079471924     3     2     8     6
 -0.0177042590     3     2     8     7
 0.0000000896     3     2     8     8
 -0.0177042585     3     2     9     6
 -0.0079471926     3     2     9     7
 0.0000000896     3     2     9     9
 0.0000124036     3     2    10     1
 0.0024686383     3     2    10     3
 -0.0000000158     3     2    10     4
 -0.0198619023     3     2    10     5
 0.0000000948     3     2    10    10
 0.5622149774     3     3     1     1
 0.0000000050     3     3     1     2
 0.0000000011     3     3     1     4
 -0.0024124666     3     3     1     5
 -0.0000000124     3     3     1    10
 0.0000000050     3     3     2     1
 0.5622028586     3     3     2     2
 0.0002095484     3     3     2     4
 0.0000000121     3     3     2     5
 -0.0024686383     3     3     2    10
 0.0000000011     3     3     4     1
 0.0002095484     3     3     4     2
 0.2176820946     3     3     4     4
 -0.0000000005     3     3     4     5
 0.0123915760     3     3     4    10
 -0.0024124666     3     3     5     1
 0.0000000121     3     3     5     2
 -0.0000000005     3     3     5     4
 0.3677451257     3     3     5     5
 0.0000000021     3     3     5    10
 0.3693945928     3     3     6     6
 0.0000000001     3     3     6     7
 -0.0000000008     3     3     6     8
 0.0000000020     3     3     6     9
 0.0000000001     3     3     7     6
 0.3693945911     3     3     7     7
 0.0000000020     3     3     7     8
 0.0000000008     3     3     7     9
 -0.0000000008     3     3     8     6