&FCI NORB= 10,NELEC= 14,MS2=0,
 ORBSYM=1,1,1,1,1,1,1,1,1,1
 ISYM=1,
&END
 0.2116526906     1     1     2     2
 0.0000000885     1     1     2     3
 -0.0002284704     1     1     2     4
 0.0000015506     1     1     2     5
 0.0027775713     1     1     2    10
 0.0000000885     1     1     3     2
 0.5578868946     1     1     3     3
 -0.0003548170     1     1     3     4
 0.0089252213     1     1     3     5
 -0.0000358052     1     1     3    10
 -0.0002284704     1     1     4     2
 -0.0003548170     1     1     4     3
 0.5652919659     1     1     4     4
 0.0000653257     1     1     4     5
 0.0301528159     1     1     4    10
 0.0000015506     1     1     5     2
 0.0089252213     1     1     5     3
 0.0000653257     1     1     5     4
 0.5565257114     1     1     5     5
 -0.0003090609     1     1     5    10
 0.5612807210     1     1     6     6
 -0.0000000005     1     1     6     7
 -0.0003060792     1     1     6     8
 0.0001029072     1     1     6     9
 -0.0000000005     1     1     7     6
 0.5612807236     1     1     7     7
 -0.0001029072     1     1     7     8
 -0.0003060792     1     1     7     9
 -0.0003060792     1     1     8     6
 -0.0001029072     1     1     8     7
 0.5402309879     1     1     8     8
 -0.0000000001     1     1     8     9
 0.0001029072     1     1     9     6
 -0.0003060792     1     1     9     7
 -0.0000000001     1     1     9     8
 0.5402309875     1     1     9     9
 0.0027775713     1     1    10     2
 -0.0000358052     1     1    10     3
 0.0301528159     1     1    10     4
 -0.0003090609     1     1    10     5
 0.5657064479     1     1    10    10
 -0.2116526906     1     2     2     1
 -0.0001740815     1     2     2     3
 -0.0000001160     1     2     2     4
 -0.0030570764     1     2     2     5
 0.0000014091     1     2     2    10
 -0.0000000885     1     2     3     1
 -0.0000005563     1     2     3     3
 0.3496499406     1     2     3     4
 0.0000000445     1     2     3     5
 0.0352694320     1     2     3    10
 0.0002284704     1     2     4     1
 0.3496615521     1     2     4     3
 0.0000005394     1     2     4     4
 -0.0643678416     1     2     4     5
 0.0000000251     1     2     4    10
 -0.0000015506     1     2     5     1
 0.0000000445     1     2     5     3
 -0.0643786270     1     2     5     4
 -0.0000001207     1     2     5     5
 0.3046148935     1     2     5    10
 -0.0000001188     1     2     6     6
 0.3016584871     1     2     6     8
 -0.1014209140     1     2     6     9
 -0.0000001188     1     2     7     7
 0.1014209140     1     2     7     8
 0.3016584873     1     2     7     9
 0.3016228003     1     2     8     6
 0.1014089157     1     2     8     7
 0.0000000901     1     2     8     8
 -0.1014089157     1     2     9     6
 0.3016228005     1     2     9     7
 0.0000000901     1     2     9     9
 -0.0027775713     1     2    10     1
 0.0352583285     1     2    10     3
 0.0000000251     1     2    10     4
 0.3045358306     1     2    10     5
 0.0000000832     1     2    10    10
 -0.0000000885     1     3     2     1
 0.0001740815     1     3     2     2
 -0.0000114945     1     3     2     4
 -0.0000000001     1     3     2     5
 0.0000110714     1     3     2    10
 -0.5578868946     1     3     3     1
 0.0000005563     1     3     3     2
 -0.0000000925     1     3     3     4
 -0.0020996365     1     3     3     5
 0.0000010823     1     3     3    10
 0.0003548170     1     3     4     1
 -0.3496615521     1     3     4     2
 -0.0004010603     1     3     4     4
 -0.0000015298     1     3     4     5
 0.0028417491     1     3     4    10
 -0.0089252213     1     3     5     1
 -0.0000000445     1     3     5     2
 -0.0000009715     1     3     5     4
 -0.0202912075     1     3     5     5
 0.0000101008     1     3     5    10
 -0.0210739371     1     3     6     6
 0.0000093831     1     3     6     8
 -0.0000031547     1     3     6     9
 -0.0210739375     1     3     7     7
 0.0000031547     1     3     7     8
 0.0000093831     1     3     7     9
 0.0000086199     1     3     8     6
 0.0000028982     1     3     8     7
 -0.0178291614     1     3     8     8
 -0.0000028982     1     3     9     6
 0.0000086199     1     3     9     7
 -0.0178291613     1     3     9     9
 0.0000358052     1     3    10     1
 -0.0352583285     1     3    10     2
 0.0016671544     1     3    10     4
 0.0000086970     1     3    10     5
 -0.0188347451     1     3    10    10
 0.0002284704     1     4     2     1
 0.0000001160     1     4     2     2
 0.0000114945     1     4     2     3
 0.0000103769     1     4     2     5
 0.0000000001     1     4     2    10
 0.0003548170     1     4     3     1
 -0.3496499406     1     4     3     2
 0.0000000925     1     4     3     3
 -0.0000005487     1     4     3     5
 0.0010973460     1     4     3    10
 -0.5652919659     1     4     4     1
 -0.0000005394     1     4     4     2
 0.0004010603     1     4     4     3
 0.0003313914     1     4     4     5
 -0.0000001907     1     4     4    10
 -0.0000653257     1     4     5     1
 0.0643786270     1     4     5     2
 0.0000009715     1     4     5     3
 0.0000100710     1     4     5     5
 -0.0193456099     1     4     5    10
 0.0000107907     1     4     6     6
 -0.0182879609     1     4     6     8
 0.0061486142     1     4     6     9
 0.0000107907     1     4     7     7
 -0.0061486143     1     4     7     8
 -0.0182879604     1     4     7     9
 -0.0174518790     1     4     8     6
 -0.0058675144     1     4     8     7
 0.0000094736     1     4     8     8
 0.0058675144     1     4     9     6
 -0.0174518787     1     4     9     7
 0.0000094736     1     4     9     9
 -0.0301528159     1     4    10     1
 -0.0000000251     1     4    10     2
 -0.0016671544     1     4    10     3
 -0.0178455326     1     4    10     5
 0.0000102982     1     4    10    10
 -0.0000015506     1     5     2     1
 0.0030570764     1     5     2     2
 0.0000000001     1     5     2     3
 -0.0000103769     1     5     2     4
 0.0000794551     1     5     2    10
 -0.0089252213     1     5     3     1
 -0.0000000445     1     5     3     2
 0.0020996365     1     5     3     3
 0.0000005487     1     5     3     4
 0.0000009943     1     5     3    10
 -0.0000653257     1     5     4     1
 0.0643678416     1     5     4     2
 0.0000015298     1     5     4     3
 -0.0003313914     1     5     4     4
 -0.0005146789     1     5     4    10
 -0.5565257114     1     5     5     1
 0.0000001207     1     5     5     2
 0.0202912075     1     5     5     3
 -0.0000100710     1     5     5     4
 -0.0000001546     1     5     5    10
 0.0027774055     1     5     6     6
 0.0000001055     1     5     6     8
 -0.0000000355     1     5     6     9
 0.0027774056     1     5     7     7
 0.0000000355     1     5     7     8
 0.0000001055     1     5     7     9
 0.0000001865     1     5     8     6
 0.0000000627     1     5     8     7
 0.0022674445     1     5     8     8
 -0.0000000627     1     5     9     6
 0.0000001865     1     5     9     7
 0.0022674445     1     5     9     9
 0.0003090609     1     5    10     1
 -0.3045358306     1     5    10     2
 -0.0000086970     1     5    10     3
 0.0178455326     1     5    10     4
 0.0061586010     1     5    10    10
 0.0000366691     1     6     2     8
 -0.0000123286     1     6     2     9
 0.0000004299     1     6     3     8
 -0.0000001445     1     6     3     9
 -0.0000916844     1     6     4     8
 0.0000308253     1     6     4     9
 0.0000000818     1     6     5     8
 -0.0000000275     1     6     5     9
 -0.5612807210     1     6     6     1
 0.0000001188     1     6     6     2
 0.0210739371     1     6     6     3
 -0.0000107907     1     6     6     4
 -0.0027774055     1     6     6     5
 -0.0000006841     1     6     6    10
 0.0000000005     1     6     7     1
 0.0003060792     1     6     8     1
 -0.3016228003     1     6     8     2
 -0.0000086199     1     6     8     3
 0.0174518790     1     6     8     4
 -0.0000001865     1     6     8     5
 0.0039140921     1     6     8    10
 -0.0001029072     1     6     9     1
 0.1014089157     1     6     9     2
 0.0000028982     1     6     9     3
 -0.0058675144     1     6     9     4
 0.0000000627     1     6     9     5
 -0.0013159609     1     6     9    10
 0.0001120331     1     6    10     8
 -0.0000376668     1     6    10     9
 0.0000123286     1     7     2     8
 0.0000366692     1     7     2     9
 0.0000001445     1     7     3     8
 0.0000004299     1     7     3     9
 -0.0000308253     1     7     4     8
 -0.0000916844     1     7     4     9
 0.0000000275     1     7     5     8
 0.0000000818     1     7     5     9
 0.0000000005     1     7     6     1
 -0.5612807236     1     7     7     1
 0.0000001188     1     7     7     2
 0.0210739375     1     7     7     3
 -0.0000107907     1     7     7     4
 -0.0027774056     1     7     7     5
 -0.0000006841     1     7     7    10
 0.0001029072     1     7     8     1
 -0.1014089157     1     7     8     2
 -0.0000028982     1     7     8     3
 0.0058675144     1     7     8     4
 -0.0000000627     1     7     8     5
 0.0013159609     1     7     8    10
 0.0003060792     1     7     9     1
 -0.3016228005     1     7     9     2
 -0.0000086199     1     7     9     3
 0.0174518787     1     7     9     4
 -0.0000001865     1     7     9     5
 0.0039140919     1     7     9    10
 0.0000376668     1     7    10     8
 0.0001120331     1     7    10     9
 -0.0000366691     1     8     2     6
 -0.0000123286     1     8     2     7
 -0.0000004299     1     8     3     6
 -0.0000001445     1     8     3     7
 0.0000916844     1     8     4     6
 0.0000308253     1     8     4     7
 -0.0000000818     1     8     5     6
 -0.0000000275     1     8     5     7
 0.0003060792     1     8     6     1
 -0.3016584871     1     8     6     2
 -0.0000093831     1     8     6     3
 0.0182879609     1     8     6     4
 -0.0000001055     1     8     6     5
 0.0040800046     1     8     6    10
 0.0001029072     1     8     7     1
 -0.1014209140     1     8     7     2
 -0.0000031547     1     8     7     3
 0.0061486143     1     8     7     4
 -0.0000000355     1     8     7     5
 0.0013717426     1     8     7    10
 -0.5402309879     1     8     8     1
 -0.0000000901     1     8     8     2
 0.0178291614     1     8     8     3
 -0.0000094736     1     8     8     4
 -0.0022674445     1     8     8     5
 -0.0000008700     1     8     8    10
 0.0000000001     1     8     9     1
 -0.0001120331     1     8    10     6
 -0.0000376668     1     8    10     7
 0.0000123286     1     9     2     6
 -0.0000366692     1     9     2     7
 0.0000001445     1     9     3     6
 -0.0000004299     1     9     3     7
 -0.0000308253     1     9     4     6
 0.0000916844     1     9     4     7
 0.0000000275     1     9     5     6
 -0.0000000818     1     9     5     7
 -0.0001029072     1     9     6     1
 0.1014209140     1     9     6     2
 0.0000031547     1     9     6     3
 -0.0061486142     1     9     6     4
 0.0000000355     1     9     6     5
 -0.0013717426     1     9     6    10
 0.0003060792     1     9     7     1
 -0.3016584873     1     9     7     2
 -0.0000093831     1     9     7     3
 0.0182879604     1     9     7     4
 -0.0000001055     1     9     7     5
 0.0040800044     1     9     7    10
 0.0000000001     1     9     8     1
 -0.5402309875     1     9     9     1
 -0.0000000901     1     9     9     2
 0.0178291613     1     9     9     3
 -0.0000094736     1     9     9     4
 -0.0022674445     1     9     9     5
 -0.0000008700     1     9     9    10
 0.0000376668     1     9    10     6
 -0.0001120331     1     9    10     7
 -0.0027775713     1    10     2     1
 -0.0000014091     1    10     2     2
 -0.0000110714     1    10     2     3
 -0.0000000001     1    10     2     4
 -0.0000794551     1    10     2     5
 0.0000358052     1    10     3     1
 -0.0352694320     1    10     3     2
 -0.0000010823     1    10     3     3
 -0.0010973460     1    10     3     4
 -0.0000009943     1    10     3     5
 -0.0301528159     1    10     4     1
 -0.0000000251     1    10     4     2
 -0.0028417491     1    10     4     3
 0.0000001907     1    10     4     4
 0.0005146789     1    10     4     5
 0.0003090609     1    10     5     1
 -0.3046148935     1    10     5     2
 -0.0000101008     1    10     5     3
 0.0193456099     1    10     5     4
 0.0000001546     1    10     5     5
 0.0000006841     1    10     6     6
 -0.0040800046     1    10     6     8
 0.0013717426     1    10     6     9
 0.0000006841     1    10     7     7
 -0.0013717426     1    10     7     8
 -0.0040800044     1    10     7     9
 -0.0039140921     1    10     8     6
 -0.0013159609     1    10     8     7
 0.0000008700     1    10     8     8
 0.0013159609     1    10     9     6
 -0.0039140919     1    10     9     7
 0.0000008700     1    10     9     9
 -0.5657064479     1    10    10     1
 -0.0000000832     1    10    10     2
 0.0188347451     1    10    10     3
 -0.0000102982     1    10    10     4
 -0.0061586010     1    10    10     5
 -0.2116526906     2     1     1     2
 -0.0000000885     2     1     1     3
 0.0002284704     2     1     1     4
 -0.0000015506     2     1     1     5
 -0.0027775713     2     1     1    10
 -0.0001740815     2     1     3     2
 -0.0000005563     2     1     3     3
 0.3496615521     2     1     3     4
 0.0000000445     2     1     3     5
 0.0352583285     2     1     3    10
 -0.0000001160     2     1     4     2
 0.3496499406     2     1     4     3
 0.0000005394     2     1     4     4
 -0.0643786270     2     1     4     5
 0.0000000251     2     1     4    10
 -0.0030570764     2     1     5     2
 0.0000000445     2     1     5     3
 -0.0643678416     2     1     5     4
 -0.0000001207     2     1     5     5
 0.3045358306     2     1     5    10
 -0.0000001188     2     1     6     6
 0.3016228003     2     1     6     8
 -0.1014089157     2     1     6     9
 -0.0000001188     2     1     7     7
 0.1014089157     2     1     7     8
 0.3016228005     2     1     7     9
 0.3016584871     2     1     8     6
 0.1014209140     2     1     8     7
 0.0000000901     2     1     8     8
 -0.1014209140     2     1     9     6
 0.3016584873     2     1     9     7
 0.0000000901     2     1     9     9
 0.0000014091     2     1    10     2
 0.0352694320     2     1    10     3
 0.0000000251     2     1    10     4
 0.3046148935     2     1    10     5
 0.0000000832     2     1    10    10
 0.2116526906     2     2     1     1
 0.0001740815     2     2     1     3
 0.0000001160     2     2     1     4
 0.0030570764     2     2     1     5
 -0.0000014091     2     2     1    10
 0.0001740815     2     2     3     1
 0.5578748478     2     2     3     3
 0.0003547865     2     2     3     4
 0.0089218582     2     2     3     5
 0.0000357605     2     2     3    10
 0.0000001160     2     2     4     1
 0.0003547865     2     2     4     3
 0.5653030144     2     2     4     4
 -0.0000653156     2     2     4     5
 0.0301482118     2     2     4    10
 0.0030570764     2     2     5     1
 0.0089218582     2     2     5     3
 -0.0000653156     2     2     5     4
 0.5566111170     2     2     5     5
 0.0003090550     2     2     5    10
 0.5613268949     2     2     6     6
 -0.0000000005     2     2     6     7
 0.0003060808     2     2     6     8
 -0.0001029077     2     2     6     9
 -0.0000000005     2     2     7     6
 0.5613268975     2     2     7     7
 0.0001029077     2     2     7     8
 0.0003060808     2     2     7     9
 0.0003060808     2     2     8     6
 0.0001029077     2     2     8     7
 0.5402001059     2     2     8     8
 -0.0000000001     2     2     8     9
 -0.0001029077     2     2     9     6
 0.0003060808     2     2     9     7
 -0.0000000001     2     2     9     8
 0.5402001055     2     2     9     9
 -0.0000014091     2     2    10     1
 0.0000357605     2     2    10     3
 0.0301482118     2     2    10     4
 0.0003090550     2     2    10     5
 0.5656288547     2     2    10    10
 0.0000000885     2     3     1     1
 -0.0001740815     2     3     1     2
 0.0000114945     2     3     1     4
 0.0000000001     2     3     1     5
 -0.0000110714     2     3     1    10
 0.0000005563     2     3     3     1
 -0.5578748478     2     3     3     2
 0.0001830239     2     3     3     4
 -0.0000010681     2     3     3     5
 -0.0021398438     2     3     3    10
 -0.3496499406     2     3     4     1
 -0.0003547865     2     3     4     2
 -0.0000002034     2     3     4     4
 0.0030101787     2     3     4     5
 0.0000014398     2     3     4    10
 -0.0000000445     2     3     5     1
 -0.0089218582     2     3     5     2
 0.0019141062     2     3     5     4
 -0.0000102731     2     3     5     5
 -0.0198759751     2     3     5    10
 -0.0000106687     2     3     6     6
 -0.0184639873     2     3     6     8
 0.0062077964     2     3     6     9
 -0.0000106687     2     3     7     7
 -0.0062077964     2     3     7     8
 -0.0184639869     2     3     7     9
 -0.0169608961     2     3     8     6
 -0.0057024405     2     3     8     7
 -0.0000090346     2     3     8     8
 0.0057024405     2     3     9     6
 -0.0169608958     2     3     9     7
 -0.0000090346     2     3     9     9
 -0.0352694320     2     3    10     1
 -0.0000357605     2     3    10     2
 0.0000008460     2     3    10     4
 -0.0171111244     2     3    10     5
 -0.0000095419     2     3    10    10
 -0.0002284704     2     4     1     1
 -0.0000001160     2     4     1     2
 -0.0000114945     2     4     1     3
 -0.0000103769     2     4     1     5
 -0.0000000001     2     4     1    10
 -0.3496615521     2     4     3     1
 -0.0003547865     2     4     3     2
 -0.0001830239     2     4     3     3
 0.0010772548     2     4     3     5
 0.0000005545     2     4     3    10
 -0.0000005394     2     4     4     1
 -0.5653030144     2     4     4     2
 0.0000002034     2     4     4     3
 0.0000001710     2     4     4     5
 0.0003815697     2     4     4    10
 0.0643678416     2     4     5     1
 0.0000653156     2     4     5     2
 -0.0019141062     2     4     5     3
 -0.0198693089     2     4     5     5
 -0.0000098296     2     4     5    10
 -0.0212882518     2     4     6     6
 0.0000000001     2     4     6     7
 -0.0000092923     2     4     6     8
 0.0000031242     2     4     6     9
 0.0000000001     2     4     7     6
 -0.0212882522     2     4     7     7
 -0.0000031242     2     4     7     8
 -0.0000092923     2     4     7     9
 -0.0000088668     2     4     8     6
 -0.0000029811     2     4     8     7
 -0.0187073715     2     4     8     8
 0.0000029811     2     4     9     6
 -0.0000088668     2     4     9     7
 -0.0187073713     2     4     9     9
 -0.0000000251     2     4    10     1
 -0.0301482118     2     4    10     2
 -0.0000008460     2     4    10     3
 -0.0000090660     2     4    10     5
 -0.0203311405     2     4    10    10
 0.0000015506     2     5     1     1
 -0.0030570764     2     5     1     2
 -0.0000000001     2     5     1     3
 0.0000103769     2     5     1     4
 -0.0000794551     2     5     1    10
 -0.0000000445     2     5     3     1
 -0.0089218582     2     5     3     2
 0.0000010681     2     5     3     3
 -0.0010772548     2     5     3     4
 -0.0019588839     2     5     3    10
 0.0643786270     2     5     4     1
 0.0000653156     2     5     4     2
 -0.0030101787     2     5     4     3
 -0.0000001710     2     5     4     4
 -0.0000002627     2     5     4    10
 0.0000001207     2     5     5     1
 -0.5566111170     2     5     5     2
 0.0000102731     2     5     5     3
 0.0198693089     2     5     5     4
 0.0003036110     2     5     5    10
 0.0000014096     2     5     6     6
 -0.0002068569     2     5     6     8
 0.0000695476     2     5     6     9
 0.0000014096     2     5     7     7
 -0.0000695476     2     5     7     8
 -0.0002068568     2     5     7     9
 -0.0003665420     2     5     8     6
 -0.0001232354     2     5     8     7
 0.0000011504     2     5     8     8
 0.0001232354     2     5     9     6
 -0.0003665421     2     5     9     7
 0.0000011504     2     5     9     9
 -0.3046148935     2     5    10     1
 -0.0003090550     2     5    10     2
 0.0171111244     2     5    10     3
 0.0000090660     2     5    10     4
 0.0000031244     2     5    10    10
 -0.0000366691     2     6     1     8
 0.0000123286     2     6     1     9
 -0.0008468128     2     6     3     8
 0.0002847079     2     6     3     9
 -0.0000000471     2     6     4     8
 0.0000000158     2     6     4     9
 -0.0001610060     2     6     5     8
 0.0000541320     2     6     5     9
 0.0000001188     2     6     6     1
 -0.5613268949     2     6     6     2
 0.0000106687     2     6     6     3
 0.0212882518     2     6     6     4
 -0.0000014096     2     6     6     5
 0.0013452146     2     6     6    10
 0.0000000005     2     6     7     2
 -0.0000000001     2     6     7     4
 -0.3016584871     2     6     8     1
 -0.0003060808     2     6     8     2
 0.0169608961     2     6     8     3
 0.0000088668     2     6     8     4
 0.0003665420     2     6     8     5
 0.0000019853     2     6     8    10
 0.1014209140     2     6     9     1
 0.0001029077     2     6     9     2
 -0.0057024405     2     6     9     3
 -0.0000029811     2     6     9     4
 -0.0001232354     2     6     9     5
 -0.0000006675     2     6     9    10
 0.0000000566     2     6    10     8
 -0.0000000190     2     6    10     9
 -0.0000123286     2     7     1     8
 -0.0000366692     2     7     1     9
 -0.0002847079     2     7     3     8
 -0.0008468129     2     7     3     9
 -0.0000000158     2     7     4     8
 -0.0000000471     2     7     4     9
 -0.0000541320     2     7     5     8
 -0.0001610059     2     7     5     9
 0.0000000005     2     7     6     2
 -0.0000000001     2     7     6     4
 0.0000001188     2     7     7     1
 -0.5613268975     2     7     7     2
 0.0000106687     2     7     7     3
 0.0212882522     2     7     7     4
 -0.0000014096     2     7     7     5
 0.0013452146     2     7     7    10
 -0.1014209140     2     7     8     1
 -0.0001029077     2     7     8     2
 0.0057024405     2     7     8     3
 0.0000029811     2     7     8     4
 0.0001232354     2     7     8     5
 0.0000006675     2     7     8    10
 -0.3016584873     2     7     9     1
 -0.0003060808     2     7     9     2
 0.0169608958     2     7     9     3
 0.0000088668     2     7     9     4
 0.0003665421     2     7     9     5
 0.0000019853     2     7     9    10
 0.0000000190     2     7    10     8
 0.0000000566     2     7    10     9
 0.0000366691     2     8     1     6
 0.0000123286     2     8     1     7
 0.0008468128     2     8     3     6
 0.0002847079     2     8     3     7
 0.0000000471     2     8     4     6
 0.0000000158     2     8     4     7
 0.0001610060     2     8     5     6
 0.0000541320     2     8     5     7
 -0.3016228003     2     8     6     1
 -0.0003060808     2     8     6     2
 0.0184639873     2     8     6     3
 0.0000092923     2     8     6     4
 0.0002068569     2     8     6     5
 0.0000020697     2     8     6    10
 -0.1014089157     2     8     7     1
 -0.0001029077     2     8     7     2
 0.0062077964     2     8     7     3
 0.0000031242     2     8     7     4
 0.0000695476     2     8     7     5
 0.0000006959     2     8     7    10
 -0.0000000901     2     8     8     1
 -0.5402001059     2     8     8     2
 0.0000090346     2     8     8     3
 0.0187073715     2     8     8     4
 -0.0000011504     2     8     8     5
 0.0017154101     2     8     8    10
 0.0000000001     2     8     9     2
 -0.0000000566     2     8    10     6
 -0.0000000190     2     8    10     7
 -0.0000123286     2     9     1     6
 0.0000366692     2     9     1     7
 -0.0002847079     2     9     3     6
 0.0008468129     2     9     3     7
 -0.0000000158     2     9     4     6
 0.0000000471     2     9     4     7
 -0.0000541320     2     9     5     6
 0.0001610059     2     9     5     7
 0.1014089157     2     9     6     1
 0.0001029077     2     9     6     2
 -0.0062077964     2     9     6     3
 -0.0000031242     2     9     6     4
 -0.0000695476     2     9     6     5
 -0.0000006959     2     9     6    10
 -0.3016228005     2     9     7     1
 -0.0003060808     2     9     7     2
 0.0184639869     2     9     7     3
 0.0000092923     2     9     7     4
 0.0002068568     2     9     7     5
 0.0000020697     2     9     7    10
 0.0000000001     2     9     8     2
 -0.0000000901     2     9     9     1
 -0.5402001055     2     9     9     2
 0.0000090346     2     9     9     3
 0.0187073713     2     9     9     4
 -0.0000011504     2     9     9     5
 0.0017154101     2     9     9    10
 0.0000000190     2     9    10     6
 -0.0000000566     2     9    10     7
 0.0027775713     2    10     1     1
 0.0000014091     2    10     1     2
 0.0000110714     2    10     1     3
 0.0000000001     2    10     1     4
 0.0000794551     2    10     1     5
 -0.0352583285     2    10     3     1
 -0.0000357605     2    10     3     2
 0.0021398438     2    10     3     3
 -0.0000005545     2    10     3     4
 0.0019588839     2    10     3     5
 -0.0000000251     2    10     4     1
 -0.0301482118     2    10     4     2
 -0.0000014398     2    10     4     3
 -0.0003815697     2    10     4     4
 0.0000002627     2    10     4     5
 -0.3045358306     2    10     5     1
 -0.0003090550     2    10     5     2
 0.0198759751     2    10     5     3
 0.0000098296     2    10     5     4
 -0.0003036110     2    10     5     5
 -0.0013452146     2    10     6     6
 -0.0000020697     2    10     6     8
 0.0000006959     2    10     6     9
 -0.0013452146     2    10     7     7
 -0.0000006959     2    10     7     8
 -0.0000020697     2    10     7     9
 -0.0000019853     2    10     8     6
 -0.0000006675     2    10     8     7
 -0.0017154101     2    10     8     8
 0.0000006675     2    10     9     6
 -0.0000019853     2    10     9     7
 -0.0017154101     2    10     9     9
 -0.0000000832     2    10    10     1
 -0.5656288547     2    10    10     2
 0.0000095419     2    10    10     3
 0.0203311405     2    10    10     4
 -0.0000031244     2    10    10     5
 -0.0000000885     3     1     1     2
 -0.5578868946     3     1     1     3
 0.0003548170     3     1     1     4
 -0.0089252213     3     1     1     5
 0.0000358052     3     1     1    10
 0.0001740815     3     1     2     2
 0.0000005563     3     1     2     3
 -0.3496615521     3     1     2     4
 -0.0000000445     3     1     2     5
 -0.0352583285     3     1     2    10
 -0.0000114945     3     1     4     2
 -0.0000000925     3     1     4     3
 -0.0004010603     3     1     4     4
 -0.0000009715     3     1     4     5
 0.0016671544     3     1     4    10
 -0.0000000001     3     1     5     2
 -0.0020996365     3     1     5     3
 -0.0000015298     3     1     5     4
 -0.0202912075     3     1     5     5
 0.0000086970     3     1     5    10
 -0.0210739371     3     1     6     6
 0.0000086199     3     1     6     8
 -0.0000028982     3     1     6     9
 -0.0210739375     3     1     7     7
 0.0000028982     3     1     7     8
 0.0000086199     3     1     7     9
 0.0000093831     3     1     8     6
 0.0000031547     3     1     8     7
 -0.0178291614     3     1     8     8
 -0.0000031547     3     1     9     6
 0.0000093831     3     1     9     7
 -0.0178291613     3     1     9     9
 0.0000110714     3     1    10     2
 0.0000010823     3     1    10     3
 0.0028417491     3     1    10     4
 0.0000101008     3     1    10     5
 -0.0188347451     3     1    10    10
 0.0000000885     3     2     1     1
 0.0000005563     3     2     1     3
 -0.3496499406     3     2     1     4
 -0.0000000445     3     2     1     5
 -0.0352694320     3     2     1    10
 -0.0001740815     3     2     2     1
 -0.5578748478     3     2     2     3
 -0.0003547865     3     2     2     4
 -0.0089218582     3     2     2     5
 -0.0000357605     3     2     2    10
 0.0000114945     3     2     4     1
 0.0001830239     3     2     4     3
 -0.0000002034     3     2     4     4
 0.0019141062     3     2     4     5
 0.0000008460     3     2     4    10
 0.0000000001     3     2     5     1
 -0.0000010681     3     2     5     3
 0.0030101787     3     2     5     4
 -0.0000102731     3     2     5     5
 -0.0171111244     3     2     5    10
 -0.0000106687     3     2     6     6
 -0.0169608961     3     2     6     8
 0.0057024405     3     2     6     9
 -0.0000106687     3     2     7     7
 -0.0057024405     3     2     7     8
 -0.0169608958     3     2     7     9
 -0.0184639873     3     2     8     6
 -0.0062077964     3     2     8     7
 -0.0000090346     3     2     8     8
 0.0062077964     3     2     9     6
 -0.0184639869     3     2     9     7
 -0.0000090346     3     2     9     9
 -0.0000110714     3     2    10     1
 -0.0021398438     3     2    10     3
 0.0000014398     3     2    10     4
 -0.0198759751     3     2    10     5
 -0.0000095419     3     2    10    10
 0.5578868946     3     3     1     1
 -0.0000005563     3     3     1     2
 0.0000000925     3     3     1     4
 0.0020996365     3     3     1     5
 -0.0000010823     3     3     1    10
 -0.0000005563     3     3     2     1
 0.5578748478     3     3     2     2
 -0.0001830239     3     3     2     4
 0.0000010681     3     3     2     5
 0.0021398438     3     3     2    10
 0.0000000925     3     3     4     1
 -0.0001830239     3     3     4     2
 0.2086921703     3     3     4     4
 0.0000000429     3     3     4     5
 0.0123763530     3     3     4    10