&FCI NORB= 10,NELEC= 14,MS2=0,
 ORBSYM=1,1,1,1,1,1,1,1,1,1
 ISYM=1,
&END
 0.1706745877     1     1     2     2
 0.0000659877     1     1     2     4
 0.0000000003     1     1     2     5
 0.0017527320     1     1     2    10
 0.5388725125     1     1     3     3
 0.0000001121     1     1     3     4
 0.0068799357     1     1     3     5
 -0.0000000049     1     1     3    10
 0.0000659877     1     1     4     2
 0.0000001121     1     1     4     3
 0.5429567640     1     1     4     4
 -0.0000000102     1     1     4     5
 -0.0179136987     1     1     4    10
 0.0000000003     1     1     5     2
 0.0068799357     1     1     5     3
 -0.0000000102     1     1     5     4
 0.5409276780     1     1     5     5
 -0.0000001014     1     1     5    10
 0.5454189082     1     1     6     6
 -0.0000000371     1     1     6     8
 0.0000000960     1     1     6     9
 0.5454189082     1     1     7     7
 -0.0000000953     1     1     7     8
 -0.0000000369     1     1     7     9
 -0.0000000371     1     1     8     6
 -0.0000000953     1     1     8     7
 0.5179205526     1     1     8     8
 0.0000000960     1     1     9     6
 -0.0000000369     1     1     9     7
 0.5179205526     1     1     9     9
 0.0017527320     1     1    10     2
 -0.0000000049     1     1    10     3
 -0.0179136987     1     1    10     4
 -0.0000001014     1     1    10     5
 0.5328103111     1     1    10    10
 -0.1706745877     1     2     2     1
 0.0000778109     1     2     2     3
 0.0020361396     1     2     2     5
 -0.0000000003     1     2     2    10
 0.0000000003     1     2     3     3
 0.3708739546     1     2     3     4
 -0.0160779624     1     2     3    10
 -0.0000659877     1     2     4     1
 0.3708868831     1     2     4     3
 -0.0000000003     1     2     4     4
 -0.0336600055     1     2     4     5
 -0.0000000003     1     2     5     1
 -0.0336642030     1     2     5     4
 -0.3351628330     1     2     5    10
 0.0000000036     1     2     6     6
 -0.0000000003     1     2     6     7
 -0.1224379390     1     2     6     8
 0.3163924584     1     2     6     9
 -0.0000000003     1     2     7     6
 -0.0000000036     1     2     7     7
 -0.3163924584     1     2     7     8
 -0.1224379390     1     2     7     9
 -0.1224310027     1     2     8     6
 -0.3163745342     1     2     8     7
 -0.0000000009     1     2     8     8
 -0.0000000005     1     2     8     9
 0.3163745342     1     2     9     6
 -0.1224310027     1     2     9     7
 -0.0000000005     1     2     9     8
 0.0000000009     1     2     9     9
 -0.0017527320     1     2    10     1
 -0.0160718019     1     2    10     3
 -0.3351217088     1     2    10     5
 -0.0000778109     1     3     2     2
 -0.0000122849     1     3     2     4
 -0.0000060088     1     3     2    10
 -0.5388725125     1     3     3     1
 -0.0000000003     1     3     3     2
 0.0010941320     1     3     3     5
 -0.0000000002     1     3     3    10
 -0.0000001121     1     3     4     1
 -0.3708868831     1     3     4     2
 0.0002421750     1     3     4     4
 -0.0000000003     1     3     4     5
 0.0016805445     1     3     4    10
 -0.0068799357     1     3     5     1
 -0.0000000001     1     3     5     4
 0.0209545780     1     3     5     5
 -0.0000000031     1     3     5    10
 0.0215133103     1     3     6     6
 -0.0000000011     1     3     6     8
 0.0000000029     1     3     6     9
 0.0215133103     1     3     7     7
 -0.0000000027     1     3     7     8
 -0.0000000011     1     3     7     9
 -0.0000000010     1     3     8     6
 -0.0000000025     1     3     8     7
 0.0176927778     1     3     8     8
 0.0000000026     1     3     9     6
 -0.0000000010     1     3     9     7
 0.0176927778     1     3     9     9
 0.0000000049     1     3    10     1
 0.0160718019     1     3    10     2
 0.0008582272     1     3    10     4
 -0.0000000027     1     3    10     5
 0.0183554722     1     3    10    10
 -0.0000659877     1     4     2     1
 0.0000122849     1     4     2     3
 0.0000041246     1     4     2     5
 -0.0000001121     1     4     3     1
 -0.3708739546     1     4     3     2
 -0.0000000001     1     4     3     5
 0.0008098903     1     4     3    10
 -0.5429567640     1     4     4     1
 0.0000000003     1     4     4     2
 -0.0002421750     1     4     4     3
 0.0000662316     1     4     4     5
 -0.0000000001     1     4     4    10
 0.0000000102     1     4     5     1
 0.0336642030     1     4     5     2
 0.0000000001     1     4     5     3
 0.0000000031     1     4     5     5
 -0.0195477976     1     4     5    10
 0.0000000036     1     4     6     6
 -0.0070453754     1     4     6     8
 0.0182059881     1     4     6     9
 0.0000000029     1     4     7     7
 -0.0182059881     1     4     7     8
 -0.0070453754     1     4     7     9
 -0.0067167226     1     4     8     6
 -0.0173567145     1     4     8     7
 0.0000000027     1     4     8     8
 0.0173567145     1     4     9     6
 -0.0067167226     1     4     9     7
 0.0000000028     1     4     9     9
 0.0179136987     1     4    10     1
 -0.0008582272     1     4    10     3
 -0.0185492939     1     4    10     5
 0.0000000029     1     4    10    10
 -0.0000000003     1     5     2     1
 -0.0020361396     1     5     2     2
 -0.0000041246     1     5     2     4
 -0.0000414176     1     5     2    10
 -0.0068799357     1     5     3     1
 -0.0010941320     1     5     3     3
 0.0000000001     1     5     3     4
 -0.0000000002     1     5     3    10
 0.0000000102     1     5     4     1
 0.0336600055     1     5     4     2
 0.0000000003     1     5     4     3
 -0.0000662316     1     5     4     4
 -0.0002699391     1     5     4    10
 -0.5409276780     1     5     5     1
 -0.0209545780     1     5     5     3
 -0.0000000031     1     5     5     4
 -0.0000000001     1     5     5    10
 -0.0014419582     1     5     6     6
 -0.0000000001     1     5     6     8
 0.0000000001     1     5     6     9
 -0.0014419582     1     5     7     7
 -0.0000000001     1     5     7     9
 -0.0000000001     1     5     8     6
 -0.0000000001     1     5     8     7
 -0.0011812570     1     5     8     8
 0.0000000002     1     5     9     6
 -0.0011812570     1     5     9     9
 0.0000001014     1     5    10     1
 0.3351217088     1     5    10     2
 0.0000000027     1     5    10     3
 0.0185492939     1     5    10     4
 -0.0034589641     1     5    10    10
 -0.0000073635     1     6     2     8
 0.0000190281     1     6     2     9
 0.0000000001     1     6     3     9
 -0.0000860442     1     6     4     8
 0.0002223471     1     6     4     9
 -0.5454189082     1     6     6     1
 -0.0000000036     1     6     6     2
 -0.0215133103     1     6     6     3
 -0.0000000036     1     6     6     4
 0.0014419582     1     6     6     5
 0.0000000001     1     6     6    10
 0.0000000003     1     6     7     2
 0.0000000371     1     6     8     1
 0.1224310027     1     6     8     2
 0.0000000010     1     6     8     3
 0.0067167226     1     6     8     4
 0.0000000001     1     6     8     5
 -0.0008389219     1     6     8    10
 -0.0000000960     1     6     9     1
 -0.3163745342     1     6     9     2
 -0.0000000026     1     6     9     3
 -0.0173567145     1     6     9     4
 -0.0000000002     1     6     9     5
 0.0021678620     1     6     9    10
 -0.0000268450     1     6    10     8
 0.0000693703     1     6    10     9
 -0.0000190281     1     7     2     8
 -0.0000073635     1     7     2     9
 -0.0000000001     1     7     3     9
 -0.0002223471     1     7     4     8
 -0.0000860442     1     7     4     9
 0.0000000003     1     7     6     2
 -0.5454189082     1     7     7     1
 0.0000000036     1     7     7     2
 -0.0215133103     1     7     7     3
 -0.0000000029     1     7     7     4
 0.0014419582     1     7     7     5
 0.0000000002     1     7     7    10
 0.0000000953     1     7     8     1
 0.3163745342     1     7     8     2
 0.0000000025     1     7     8     3
 0.0173567145     1     7     8     4
 0.0000000001     1     7     8     5
 -0.0021678620     1     7     8    10
 0.0000000369     1     7     9     1
 0.1224310027     1     7     9     2
 0.0000000010     1     7     9     3
 0.0067167226     1     7     9     4
 -0.0008389219     1     7     9    10
 -0.0000693703     1     7    10     8
 -0.0000268450     1     7    10     9
 0.0000073635     1     8     2     6
 0.0000190281     1     8     2     7
 0.0000860442     1     8     4     6
 0.0002223471     1     8     4     7
 0.0000000371     1     8     6     1
 0.1224379390     1     8     6     2
 0.0000000011     1     8     6     3
 0.0070453754     1     8     6     4
 0.0000000001     1     8     6     5
 -0.0008626010     1     8     6    10
 0.0000000953     1     8     7     1
 0.3163924584     1     8     7     2
 0.0000000027     1     8     7     3
 0.0182059881     1     8     7     4
 -0.0022290514     1     8     7    10
 -0.5179205526     1     8     8     1
 0.0000000009     1     8     8     2
 -0.0176927778     1     8     8     3
 -0.0000000027     1     8     8     4
 0.0011812570     1     8     8     5
 0.0000000002     1     8     8    10
 0.0000000005     1     8     9     2
 0.0000000001     1     8     9    10
 0.0000268450     1     8    10     6
 0.0000693703     1     8    10     7
 -0.0000190281     1     9     2     6
 0.0000073635     1     9     2     7
 -0.0000000001     1     9     3     6
 0.0000000001     1     9     3     7
 -0.0002223471     1     9     4     6
 0.0000860442     1     9     4     7
 -0.0000000960     1     9     6     1
 -0.3163924584     1     9     6     2
 -0.0000000029     1     9     6     3
 -0.0182059881     1     9     6     4
 -0.0000000001     1     9     6     5
 0.0022290514     1     9     6    10
 0.0000000369     1     9     7     1
 0.1224379390     1     9     7     2
 0.0000000011     1     9     7     3
 0.0070453754     1     9     7     4
 0.0000000001     1     9     7     5
 -0.0008626010     1     9     7    10
 0.0000000005     1     9     8     2
 0.0000000001     1     9     8    10
 -0.5179205526     1     9     9     1
 -0.0000000009     1     9     9     2
 -0.0176927778     1     9     9     3
 -0.0000000028     1     9     9     4
 0.0011812570     1     9     9     5
 -0.0000000001     1     9     9    10
 -0.0000693703     1     9    10     6
 0.0000268450     1     9    10     7
 -0.0017527320     1    10     2     1
 0.0000000003     1    10     2     2
 0.0000060088     1    10     2     3
 0.0000414176     1    10     2     5
 0.0000000049     1    10     3     1
 0.0160779624     1    10     3     2
 0.0000000002     1    10     3     3
 -0.0008098903     1    10     3     4
 0.0000000002     1    10     3     5
 0.0179136987     1    10     4     1
 -0.0016805445     1    10     4     3
 0.0000000001     1    10     4     4
 0.0002699391     1    10     4     5
 0.0000001014     1    10     5     1
 0.3351628330     1    10     5     2
 0.0000000031     1    10     5     3
 0.0195477976     1    10     5     4
 0.0000000001     1    10     5     5
 -0.0000000001     1    10     6     6
 0.0008626010     1    10     6     8
 -0.0022290514     1    10     6     9
 -0.0000000002     1    10     7     7
 0.0022290514     1    10     7     8
 0.0008626010     1    10     7     9
 0.0008389219     1    10     8     6
 0.0021678620     1    10     8     7
 -0.0000000002     1    10     8     8
 -0.0000000001     1    10     8     9
 -0.0021678620     1    10     9     6
 0.0008389219     1    10     9     7
 -0.0000000001     1    10     9     8
 0.0000000001     1    10     9     9
 -0.5328103111     1    10    10     1
 -0.0183554722     1    10    10     3
 -0.0000000029     1    10    10     4
 0.0034589641     1    10    10     5
 -0.1706745877     2     1     1     2
 -0.0000659877     2     1     1     4
 -0.0000000003     2     1     1     5
 -0.0017527320     2     1     1    10
 0.0000778109     2     1     3     2
 0.0000000003     2     1     3     3
 0.3708868831     2     1     3     4
 -0.0160718019     2     1     3    10
 0.3708739546     2     1     4     3
 -0.0000000003     2     1     4     4
 -0.0336642030     2     1     4     5
 0.0020361396     2     1     5     2
 -0.0336600055     2     1     5     4
 -0.3351217088     2     1     5    10
 0.0000000036     2     1     6     6
 -0.0000000003     2     1     6     7
 -0.1224310027     2     1     6     8
 0.3163745342     2     1     6     9
 -0.0000000003     2     1     7     6
 -0.0000000036     2     1     7     7
 -0.3163745342     2     1     7     8
 -0.1224310027     2     1     7     9
 -0.1224379390     2     1     8     6
 -0.3163924584     2     1     8     7
 -0.0000000009     2     1     8     8
 -0.0000000005     2     1     8     9
 0.3163924584     2     1     9     6
 -0.1224379390     2     1     9     7
 -0.0000000005     2     1     9     8
 0.0000000009     2     1     9     9
 -0.0000000003     2     1    10     2
 -0.0160779624     2     1    10     3
 -0.3351628330     2     1    10     5
 0.1706745877     2     2     1     1
 -0.0000778109     2     2     1     3
 -0.0020361396     2     2     1     5
 0.0000000003     2     2     1    10
 -0.0000778109     2     2     3     1
 0.5388606887     2     2     3     3
 -0.0000001121     2     2     3     4
 0.0068787815     2     2     3     5
 0.0000000049     2     2     3    10
 -0.0000001121     2     2     4     3
 0.5429688583     2     2     4     4
 0.0000000102     2     2     4     5
 -0.0179103113     2     2     4    10
 -0.0020361396     2     2     5     1
 0.0068787815     2     2     5     3
 0.0000000102     2     2     5     4
 0.5409741947     2     2     5     5
 0.0000001014     2     2     5    10
 0.5454433301     2     2     6     6
 0.0000000369     2     2     6     8
 -0.0000000953     2     2     6     9
 0.5454433301     2     2     7     7
 0.0000000960     2     2     7     8
 0.0000000371     2     2     7     9
 0.0000000369     2     2     8     6
 0.0000000960     2     2     8     7
 0.5179037305     2     2     8     8
 -0.0000000953     2     2     9     6
 0.0000000371     2     2     9     7
 0.5179037305     2     2     9     9
 0.0000000003     2     2    10     1
 0.0000000049     2     2    10     3
 -0.0179103113     2     2    10     4
 0.0000001014     2     2    10     5
 0.5327716074     2     2    10    10
 0.0000778109     2     3     1     2
 0.0000122849     2     3     1     4
 0.0000060088     2     3     1    10
 -0.0000000003     2     3     3     1
 -0.5388606887     2     3     3     2
 -0.0001421747     2     3     3     4
 -0.0000000002     2     3     3     5
 -0.0011102524     2     3     3    10
 -0.3708739546     2     3     4     1
 0.0000001121     2     3     4     2
 -0.0018396468     2     3     4     5
 -0.0000000002     2     3     4    10
 -0.0068787815     2     3     5     2
 -0.0008539008     2     3     5     4
 -0.0000000031     2     3     5     5
 -0.0198936378     2     3     5    10
 -0.0000000029     2     3     6     6
 -0.0070831283     2     3     6     8
 0.0183035452     2     3     6     9
 -0.0000000036     2     3     7     7
 -0.0183035452     2     3     7     8
 -0.0070831283     2     3     7     9
 -0.0066208602     2     3     8     6
 -0.0171089963     2     3     8     7
 -0.0000000028     2     3     8     8
 0.0171089963     2     3     9     6
 -0.0066208602     2     3     9     7
 -0.0000000026     2     3     9     9
 0.0160779624     2     3    10     1
 -0.0000000049     2     3    10     2
 -0.0000000002     2     3    10     4
 -0.0180881873     2     3    10     5
 -0.0000000028     2     3    10    10
 0.0000659877     2     4     1     1
 -0.0000122849     2     4     1     3
 -0.0000041246     2     4     1     5
 -0.3708868831     2     4     3     1
 0.0000001121     2     4     3     2
 0.0001421747     2     4     3     3
 -0.0009829128     2     4     3     5
 -0.0000000001     2     4     3    10
 0.0000000003     2     4     4     1
 -0.5429688583     2     4     4     2
 -0.0000157778     2     4     4    10
 0.0336600055     2     4     5     1
 -0.0000000102     2     4     5     2
 0.0008539008     2     4     5     3
 0.0206767250     2     4     5     5
 0.0000000030     2     4     5    10
 0.0215544500     2     4     6     6
 0.0000000011     2     4     6     8
 -0.0000000027     2     4     6     9
 0.0215544500     2     4     7     7
 0.0000000028     2     4     7     8
 0.0000000011     2     4     7     9
 0.0000000010     2     4     8     6
 0.0000000027     2     4     8     7
 0.0180942371     2     4     8     8
 -0.0000000026     2     4     9     6
 0.0000000010     2     4     9     7
 0.0180942371     2     4     9     9
 0.0179103113     2     4    10     2
 0.0000000002     2     4    10     3
 0.0000000028     2     4    10     5
 0.0190321127     2     4    10    10
 0.0000000003     2     5     1     1
 0.0020361396     2     5     1     2
 0.0000041246     2     5     1     4
 0.0000414176     2     5     1    10
 -0.0068787815     2     5     3     2
 0.0000000002     2     5     3     3
 0.0009829128     2     5     3     4
 -0.0011639580     2     5     3    10
 0.0336642030     2     5     4     1
 -0.0000000102     2     5     4     2
 0.0018396468     2     5     4     3
 0.0000000001     2     5     4    10
 -0.5409741947     2     5     5     2
 0.0000000031     2     5     5     3
 -0.0206767250     2     5     5     4
 -0.0002664469     2     5     5    10
 0.0000000003     2     5     6     6
 -0.0001638188     2     5     6     8
 0.0004233251     2     5     6     9
 0.0000000002     2     5     7     7
 -0.0004233251     2     5     7     8
 -0.0001638188     2     5     7     9
 -0.0002778290     2     5     8     6
 -0.0007179393     2     5     8     7
 0.0000000001     2     5     8     8
 0.0007179393     2     5     9     6
 -0.0002778290     2     5     9     7
 0.0000000002     2     5     9     9
 0.3351628330     2     5    10     1
 -0.0000001014     2     5    10     2
 0.0180881873     2     5    10     3
 -0.0000000028     2     5    10     4
 0.0000000005     2     5    10    10
 0.0000073635     2     6     1     8
 -0.0000190281     2     6     1     9
 -0.0002350710     2     6     3     8
 0.0006074481     2     6     3     9
 0.0000016548     2     6     5     8
 -0.0000042761     2     6     5     9
 -0.0000000036     2     6     6     1
 -0.5454433301     2     6     6     2
 0.0000000029     2     6     6     3
 -0.0215544500     2     6     6     4
 -0.0000000003     2     6     6     5
 0.0005505950     2     6     6    10
 0.0000000003     2     6     7     1
 0.1224379390     2     6     8     1
 -0.0000000369     2     6     8     2
 0.0066208602     2     6     8     3
 -0.0000000010     2     6     8     4
 0.0002778290     2     6     8     5
 0.0000000002     2     6     8    10
 -0.3163924584     2     6     9     1
 0.0000000953     2     6     9     2
 -0.0171089963     2     6     9     3
 0.0000000026     2     6     9     4
 -0.0007179393     2     6     9     5
 -0.0000000005     2     6     9    10
 -0.0000000002     2     6    10     9
 0.0000190281     2     7     1     8
 0.0000073635     2     7     1     9
 -0.0006074481     2     7     3     8
 -0.0002350710     2     7     3     9
 0.0000000001     2     7     4     8
 0.0000042761     2     7     5     8
 0.0000016548     2     7     5     9
 0.0000000003     2     7     6     1
 0.0000000036     2     7     7     1
 -0.5454433301     2     7     7     2
 0.0000000036     2     7     7     3
 -0.0215544500     2     7     7     4
 -0.0000000002     2     7     7     5
 0.0005505950     2     7     7    10
 0.3163924584     2     7     8     1
 -0.0000000960     2     7     8     2
 0.0171089963     2     7     8     3
 -0.0000000027     2     7     8     4
 0.0007179393     2     7     8     5
 0.0000000002     2     7     8    10
 0.1224379390     2     7     9     1
 -0.0000000371     2     7     9     2
 0.0066208602     2     7     9     3
 -0.0000000010     2     7     9     4
 0.0002778290     2     7     9     5
 0.0000000001     2     7     9    10
 -0.0000000001     2     7    10     8
 -0.0000000001     2     7    10     9
 -0.0000073635     2     8     1     6
 -0.0000190281     2     8     1     7
 0.0002350710     2     8     3     6
 0.0006074481     2     8     3     7
 -0.0000000001     2     8     4     7
 -0.0000016548     2     8     5     6
 -0.0000042761     2     8     5     7
 0.1224310027     2     8     6     1
 -0.0000000369     2     8     6     2
 0.0070831283     2     8     6     3
 -0.0000000011     2     8     6     4
 0.0001638188     2     8     6     5
 0.0000000002     2     8     6    10
 0.3163745342     2     8     7     1
 -0.0000000960     2     8     7     2
 0.0183035452     2     8     7     3
 -0.0000000028     2     8     7     4
 0.0004233251     2     8     7     5
 0.0000000003     2     8     7    10
 0.0000000009     2     8     8     1
 -0.5179037305     2     8     8     2
 0.0000000028     2     8     8     3
 -0.0180942371     2     8     8     4
 -0.0000000001     2     8     8     5
 0.0006340197     2     8     8    10
 0.0000000005     2     8     9     1
 0.0000000001     2     8    10     7
 0.0000190281     2     9     1     6
 -0.0000073635     2     9     1     7
 -0.0006074481     2     9     3     6
 0.0002350710     2     9     3     7
 0.0000042761     2     9     5     6
 -0.0000016548     2     9     5     7
 -0.3163745342     2     9     6     1
 0.0000000953     2     9     6     2
 -0.0183035452     2     9     6     3
 0.0000000027     2     9     6     4
 -0.0004233251     2     9     6     5
 -0.0000000004     2     9     6    10
 0.1224310027     2     9     7     1
 -0.0000000371     2     9     7     2
 0.0070831283     2     9     7     3
 -0.0000000011     2     9     7     4
 0.0001638188     2     9     7     5
 0.0000000002     2     9     7    10
 0.0000000005     2     9     8     1
 -0.0000000009     2     9     9     1
 -0.5179037305     2     9     9     2
 0.0000000026     2     9     9     3
 -0.0180942371     2     9     9     4
 -0.0000000002     2     9     9     5
 0.0006340197     2     9     9    10
 0.0000000002     2     9    10     6
 0.0000000001     2     9    10     7
 0.0017527320     2    10     1     1
 -0.0000000003     2    10     1     2
 -0.0000060088     2    10     1     3
 -0.0000414176     2    10     1     5
 0.0160718019     2    10     3     1
 -0.0000000049     2    10     3     2
 0.0011102524     2    10     3     3
 0.0000000001     2    10     3     4
 0.0011639580     2    10     3     5
 0.0179103113     2    10     4     2
 0.0000000002     2    10     4     3
 0.0000157778     2    10     4     4
 -0.0000000001     2    10     4     5
 0.3351217088     2    10     5     1
 -0.0000001014     2    10     5     2
 0.0198936378     2    10     5     3
 -0.0000000030     2    10     5     4
 0.0002664469     2    10     5     5
 -0.0005505950     2    10     6     6
 -0.0000000002     2    10     6     8
 0.0000000004     2    10     6     9
 -0.0005505950     2    10     7     7
 -0.0000000003     2    10     7     8
 -0.0000000002     2    10     7     9
 -0.0000000002     2    10     8     6
 -0.0000000002     2    10     8     7
 -0.0006340197     2    10     8     8
 0.0000000005     2    10     9     6
 -0.0000000001     2    10     9     7
 -0.0006340197     2    10     9     9
 -0.5327716074     2    10    10     2
 0.0000000028     2    10    10     3
 -0.0190321127     2    10    10     4
 -0.0000000005     2    10    10     5
 -0.5388725125     3     1     1     3
 -0.0000001121     3     1     1     4
 -0.0068799357     3     1     1     5
 0.0000000049     3     1     1    10
 -0.0000778109     3     1     2     2
 -0.0000000003     3     1     2     3
 -0.3708868831     3     1     2     4
 0.0160718019     3     1     2    10
 -0.0000122849     3     1     4     2
 0.0002421750     3     1     4     4
 -0.0000000001     3     1     4     5
 0.0008582272     3     1     4    10
 0.0010941320     3     1     5     3
 -0.0000000003     3     1     5     4
 0.0209545780     3     1     5     5
 -0.0000000027     3     1     5    10
 0.0215133103     3     1     6     6
 -0.0000000010     3     1     6     8
 0.0000000026     3     1     6     9
 0.0215133103     3     1     7     7
 -0.0000000025     3     1     7     8
 -0.0000000010     3     1     7     9
 -0.0000000011     3     1     8     6
 -0.0000000027     3     1     8     7
 0.0176927778     3     1     8     8
 0.0000000029     3     1     9     6
 -0.0000000011     3     1     9     7
 0.0176927778     3     1     9     9
 -0.0000060088     3     1    10     2
 -0.0000000002     3     1    10     3
 0.0016805445     3     1    10     4
 -0.0000000031     3     1    10     5
 0.0183554722     3     1    10    10
 -0.0000000003     3     2     1     3
 -0.3708739546     3     2     1     4
 0.0160779624     3     2     1    10
 0.0000778109     3     2     2     1
 -0.5388606887     3     2     2     3
 0.0000001121     3     2     2     4
 -0.0068787815     3     2     2     5
 -0.0000000049     3     2     2    10
 0.0000122849     3     2     4     1
 -0.0001421747     3     2     4     3
 -0.0008539008     3     2     4     5
 -0.0000000002     3     2     4    10
 -0.0000000002     3     2     5     3
 -0.0018396468     3     2     5     4
 -0.0000000031     3     2     5     5
 -0.0180881873     3     2     5    10
 -0.0000000029     3     2     6     6
 -0.0066208602     3     2     6     8
 0.0171089963     3     2     6     9
 -0.0000000036     3     2     7     7
 -0.0171089963     3     2     7     8
 -0.0066208602     3     2     7     9
 -0.0070831283     3     2     8     6
 -0.0183035452     3     2     8     7
 -0.0000000028     3     2     8     8
 0.0183035452     3     2     9     6
 -0.0070831283     3     2     9     7
 -0.0000000026     3     2     9     9
 0.0000060088     3     2    10     1
 -0.0011102524     3     2    10     3
 -0.0000000002     3     2    10     4
 -0.0198936378     3     2    10     5
 -0.0000000028     3     2    10    10
 0.5388725125     3     3     1     1
 0.0000000003     3     3     1     2
 -0.0010941320     3     3     1     5
 0.0000000002     3     3     1    10
 0.0000000003     3     3     2     1
 0.5388606887     3     3     2     2
 0.0001421747     3     3     2     4
 0.0000000002     3     3     2     5
 0.0011102524     3     3     2    10
 0.0001421747     3     3     4     2
 0.1678934533     3     3     4     4
 -0.0107258472     3     3     4    10
 -0.0010941320     3     3     5     1
 0.0000000002     3     3     5     2
 0.3475442038     3     3     5     5
 -0.0000000002     3     3     5    10
 0.3489153365     3     3     6     6
 0.3489153365     3     3     7     7
 -0.0000000002     3     3     7     8
 -0.0000000001     3     3     7     9
 -0.0000000002     3     3     8     7
 0.3463444737     3     3     8     8
 -0.0000000001     3     3     9     7
 0.3463444737     3     3     9     9
 0.0000000002     3     3    10     1
 0.0011102524     3     3    10     2
 -0.0107258472     3     3    10     4
 -0.0000000002     3     3    10     5
 0.3555796099     3     3    10    10
 0.0000001121     3     4     1     1
 0.3708739546     3     4     1     2
 0.0000000001     3     4     1     5
 -0.0008098903     3     4     1    10
 0.3708868831     3     4     2     1
 -0.0000001121     3     4     2     2
 -0.0001421747     3     4     2     3
 0.0009829128     3     4     2     5
 0.0000000001     3     4     2    10
 -0.0002421750     3     4     4     1
 -0.1678934533     3     4     4     3
 -0.0313422587     3     4     4     5
 0.0000000003     3     4     5     1
 0.0018396468     3     4     5     2
 -0.1688471388     3     4     5    10
 0.0000000010     3     4     6     6
 -0.0612707921     3     4     6     8
 0.1583301442     3     4     6     9
 -0.0000000009     3     4     7     7
 -0.1583301442     3     4     7     8
 -0.0612707921     3     4     7     9
 -0.0604235858     3     4     8     6
 -0.1561408744     3     4     8     7
 -0.0000000005     3     4     8     8
 -0.0000000003     3     4     8     9
 0.1561408744     3     4     9     6
 -0.0604235858     3     4     9     7
 -0.0000000003     3     4     9     8
 0.0000000005     3     4     9     9
 -0.0016805445     3     4    10     1
 0.0000000002     3     4    10     2
 0.0107258472     3     4    10     3
 -0.1629591713     3     4    10     5
 0.0068799357     3     5     1     1
 0.0010941320     3     5     1     3
 -0.0000000001     3     5     1     4
 0.0000000002     3     5     1    10
 0.0068787815     3     5     2     2
 -0.0000000002     3     5     2     3
 -0.0009829128     3     5     2     4
 0.0011639580     3     5     2    10
 0.0000000001     3     5     4     1
 0.0008539008     3     5     4     2
 0.0313422587     3     5     4     4
 -0.0060635399     3     5     4    10
 -0.0209545780     3     5     5     1
 0.0000000031     3     5     5     2
 -0.3475442038     3     5     5     3
 0.0093292372     3     5     6     6
 0.0000000001     3     5     6     8
 -0.0000000003     3     5     6     9
 0.0093292372     3     5     7     7
 -0.0000000004     3     5     7     8
 -0.0000000001     3     5     7     9
 0.0000000001     3     5     8     6
 -0.0000000004     3     5     8     7
 0.0095076857     3     5     8     8
 -0.0000000004     3     5     9     6
 -0.0000000001     3     5     9     7
 0.0095076857     3     5     9     9
 0.0000000031     3     5    10     1
 0.0198936378     3     5    10     2
 0.0000000002     3     5    10     3
 0.1629591713     3     5    10     4
 0.0086189430     3     5    10    10
 -0.0000000001     3     6     1     9
 0.0002350710     3     6     2     8
 -0.0006074481     3     6     2     9