&FCI NORB= 10,NELEC= 14,MS2=0,
 ORBSYM=1,1,1,1,1,1,1,1,1,1
 ISYM=1,
&END
 0.1603272403     1     1     2     2
 -0.0000416985     1     1     2     4
 -0.0000000001     1     1     2     5
 -0.0015398355     1     1     2    10
 0.5341041209     1     1     3     3
 0.0000000190     1     1     3     4
 0.0065740105     1     1     3     5
 -0.0000000004     1     1     3    10
 -0.0000416985     1     1     4     2
 0.0000000190     1     1     4     3
 0.5372490222     1     1     4     4
 -0.0000000019     1     1     4     5
 -0.0151549952     1     1     4    10
 -0.0000000001     1     1     5     2
 0.0065740105     1     1     5     3
 -0.0000000019     1     1     5     4
 0.5371624792     1     1     5     5
 -0.0000000185     1     1     5    10
 0.5407181878     1     1     6     6
 -0.0000000077     1     1     6     8
 0.0000000153     1     1     6     9
 0.5407181878     1     1     7     7
 -0.0000000153     1     1     7     8
 -0.0000000077     1     1     7     9
 -0.0000000077     1     1     8     6
 -0.0000000153     1     1     8     7
 0.5119737464     1     1     8     8
 0.0000000153     1     1     9     6
 -0.0000000077     1     1     9     7
 0.5119737464     1     1     9     9
 -0.0015398355     1     1    10     2
 -0.0000000004     1     1    10     3
 -0.0151549952     1     1    10     4
 -0.0000000185     1     1    10     5
 0.5243135995     1     1    10    10
 -0.1603272403     1     2     2     1
 0.0000676303     1     2     2     3
 0.0018044740     1     2     2     5
 -0.0000000001     1     2     2    10
 -0.0000000002     1     2     3     3
 -0.3759997897     1     2     3     4
 -0.0000000007     1     2     3     5
 0.0125491051     1     2     3    10
 0.0000416985     1     2     4     1
 -0.3760128762     1     2     4     3
 0.0000000003     1     2     4     4
 0.0279230160     1     2     4     5
 0.0000000004     1     2     4    10
 0.0000000001     1     2     5     1
 -0.0000000006     1     2     5     3
 0.0279262908     1     2     5     4
 -0.0000000052     1     2     5     5
 0.3413807330     1     2     5    10
 0.0000000033     1     2     6     6
 0.0000000001     1     2     6     7
 0.1538306381     1     2     6     8
 -0.3074286253     1     2     6     9
 0.0000000001     1     2     7     6
 0.0000000038     1     2     7     7
 0.3074286254     1     2     7     8
 0.1538306381     1     2     7     9
 0.1538235346     1     2     8     6
 0.3074144291     1     2     8     7
 0.0000000004     1     2     8     8
 -0.0000000001     1     2     8     9
 -0.3074144291     1     2     9     6
 0.1538235346     1     2     9     7
 -0.0000000001     1     2     9     8
 0.0000000009     1     2     9     9
 0.0015398355     1     2    10     1
 0.0125439907     1     2    10     3
 0.0000000004     1     2    10     4
 0.3413467309     1     2    10     5
 -0.0000000018     1     2    10    10
 -0.0000676303     1     3     2     2
 0.0000124113     1     3     2     4
 0.0000049651     1     3     2    10
 -0.5341041209     1     3     3     1
 0.0000000002     1     3     3     2
 0.0009412899     1     3     3     5
 -0.0000000190     1     3     4     1
 0.3760128762     1     3     4     2
 0.0002180416     1     3     4     4
 -0.0000000001     1     3     4     5
 0.0014360306     1     3     4    10
 -0.0065740105     1     3     5     1
 0.0000000006     1     3     5     2
 -0.0000000001     1     3     5     4
 0.0211088324     1     3     5     5
 -0.0000000006     1     3     5    10
 0.0215538762     1     3     6     6
 -0.0000000002     1     3     6     8
 0.0000000004     1     3     6     9
 0.0215538762     1     3     7     7
 -0.0000000004     1     3     7     8
 -0.0000000002     1     3     7     9
 -0.0000000001     1     3     8     6
 -0.0000000004     1     3     8     7
 0.0176342735     1     3     8     8
 0.0000000004     1     3     9     6
 -0.0000000001     1     3     9     7
 0.0176342735     1     3     9     9
 0.0000000004     1     3    10     1
 -0.0125439907     1     3    10     2
 0.0007182009     1     3    10     4
 -0.0000000005     1     3    10     5
 0.0181735964     1     3    10    10
 0.0000416985     1     4     2     1
 -0.0000124113     1     4     2     3
 -0.0000032348     1     4     2     5
 -0.0000000190     1     4     3     1
 0.3759997897     1     4     3     2
 0.0007106874     1     4     3    10
 -0.5372490222     1     4     4     1
 -0.0000000003     1     4     4     2
 -0.0002180416     1     4     4     3
 0.0001254835     1     4     4     5
 0.0000000019     1     4     5     1
 -0.0279262908     1     4     5     2
 0.0000000001     1     4     5     3
 0.0000000010     1     4     5     5
 -0.0195563323     1     4     5    10
 0.0000000002     1     4     6     6
 -0.0087335840     1     4     6     8
 0.0174539595     1     4     6     9
 0.0000000002     1     4     7     7
 -0.0174539595     1     4     7     8
 -0.0087335840     1     4     7     9
 -0.0083244256     1     4     8     6
 -0.0166362615     1     4     8     7
 0.0000000004     1     4     8     8
 0.0166362615     1     4     9     6
 -0.0083244256     1     4     9     7
 0.0000000004     1     4     9     9
 0.0151549952     1     4    10     1
 -0.0000000004     1     4    10     2
 -0.0007182009     1     4    10     3
 -0.0186172787     1     4    10     5
 0.0000000006     1     4    10    10
 0.0000000001     1     5     2     1
 -0.0018044740     1     5     2     2
 0.0000032348     1     5     2     4
 0.0000343463     1     5     2    10
 -0.0065740105     1     5     3     1
 0.0000000007     1     5     3     2
 -0.0009412899     1     5     3     3
 0.0000000019     1     5     4     1
 -0.0279230160     1     5     4     2
 0.0000000001     1     5     4     3
 -0.0001254835     1     5     4     4
 -0.0002514048     1     5     4    10
 -0.5371624792     1     5     5     1
 0.0000000052     1     5     5     2
 -0.0211088324     1     5     5     3
 -0.0000000010     1     5     5     4
 -0.0012054933     1     5     6     6
 -0.0012054933     1     5     7     7
 -0.0010011019     1     5     8     8
 -0.0010011019     1     5     9     9
 0.0000000185     1     5    10     1
 -0.3413467309     1     5    10     2
 0.0000000005     1     5    10     3
 0.0186172787     1     5    10     4
 -0.0029179229     1     5    10    10
 0.0000075931     1     6     2     8
 -0.0000151748     1     6     2     9
 -0.0000000001     1     6     3     9
 -0.0001171257     1     6     4     8
 0.0002340742     1     6     4     9
 -0.5407181878     1     6     6     1
 -0.0000000033     1     6     6     2
 -0.0215538762     1     6     6     3
 -0.0000000002     1     6     6     4
 0.0012054933     1     6     6     5
 -0.0000000001     1     6     7     2
 0.0000000077     1     6     8     1
 -0.1538235346     1     6     8     2
 0.0000000001     1     6     8     3
 0.0083244256     1     6     8     4
 -0.0008667870     1     6     8    10
 -0.0000000153     1     6     9     1
 0.3074144291     1     6     9     2
 -0.0000000004     1     6     9     3
 -0.0166362615     1     6     9     4
 0.0017322631     1     6     9    10
 -0.0000280341     1     6    10     8
 0.0000560258     1     6    10     9
 0.0000151748     1     7     2     8
 0.0000075931     1     7     2     9
 0.0000000001     1     7     3     8
 -0.0002340742     1     7     4     8
 -0.0001171257     1     7     4     9
 -0.0000000001     1     7     6     2
 -0.5407181878     1     7     7     1
 -0.0000000038     1     7     7     2
 -0.0215538762     1     7     7     3
 -0.0000000002     1     7     7     4
 0.0012054933     1     7     7     5
 0.0000000153     1     7     8     1
 -0.3074144291     1     7     8     2
 0.0000000004     1     7     8     3
 0.0166362615     1     7     8     4
 -0.0017322631     1     7     8    10
 0.0000000077     1     7     9     1
 -0.1538235346     1     7     9     2
 0.0000000001     1     7     9     3
 0.0083244256     1     7     9     4
 -0.0008667870     1     7     9    10
 -0.0000560258     1     7    10     8
 -0.0000280341     1     7    10     9
 -0.0000075931     1     8     2     6
 -0.0000151748     1     8     2     7
 -0.0000000001     1     8     3     7
 0.0001171257     1     8     4     6
 0.0002340742     1     8     4     7
 0.0000000077     1     8     6     1
 -0.1538306381     1     8     6     2
 0.0000000002     1     8     6     3
 0.0087335840     1     8     6     4
 -0.0008862627     1     8     6    10
 0.0000000153     1     8     7     1
 -0.3074286254     1     8     7     2
 0.0000000004     1     8     7     3
 0.0174539595     1     8     7     4
 -0.0017711852     1     8     7    10
 -0.5119737464     1     8     8     1
 -0.0000000004     1     8     8     2
 -0.0176342735     1     8     8     3
 -0.0000000004     1     8     8     4
 0.0010011019     1     8     8     5
 0.0000000002     1     8     8    10
 0.0000000001     1     8     9     2
 0.0000280341     1     8    10     6
 0.0000560258     1     8    10     7
 0.0000151748     1     9     2     6
 -0.0000075931     1     9     2     7
 0.0000000001     1     9     3     6
 -0.0002340742     1     9     4     6
 0.0001171257     1     9     4     7
 -0.0000000153     1     9     6     1
 0.3074286253     1     9     6     2
 -0.0000000004     1     9     6     3
 -0.0174539595     1     9     6     4
 0.0017711852     1     9     6    10
 0.0000000077     1     9     7     1
 -0.1538306381     1     9     7     2
 0.0000000002     1     9     7     3
 0.0087335840     1     9     7     4
 -0.0008862627     1     9     7    10
 0.0000000001     1     9     8     2
 -0.5119737464     1     9     9     1
 -0.0000000009     1     9     9     2
 -0.0176342735     1     9     9     3
 -0.0000000004     1     9     9     4
 0.0010011019     1     9     9     5
 0.0000000002     1     9     9    10
 -0.0000560258     1     9    10     6
 0.0000280341     1     9    10     7
 0.0015398355     1    10     2     1
 0.0000000001     1    10     2     2
 -0.0000049651     1    10     2     3
 -0.0000343463     1    10     2     5
 0.0000000004     1    10     3     1
 -0.0125491051     1    10     3     2
 -0.0007106874     1    10     3     4
 0.0151549952     1    10     4     1
 -0.0000000004     1    10     4     2
 -0.0014360306     1    10     4     3
 0.0002514048     1    10     4     5
 0.0000000185     1    10     5     1
 -0.3413807330     1    10     5     2
 0.0000000006     1    10     5     3
 0.0195563323     1    10     5     4
 0.0008862627     1    10     6     8
 -0.0017711852     1    10     6     9
 0.0017711852     1    10     7     8
 0.0008862627     1    10     7     9
 0.0008667870     1    10     8     6
 0.0017322631     1    10     8     7
 -0.0000000002     1    10     8     8
 -0.0017322631     1    10     9     6
 0.0008667870     1    10     9     7
 -0.0000000002     1    10     9     9
 -0.5243135995     1    10    10     1
 0.0000000018     1    10    10     2
 -0.0181735964     1    10    10     3
 -0.0000000006     1    10    10     4
 0.0029179229     1    10    10     5
 -0.1603272403     2     1     1     2
 0.0000416985     2     1     1     4
 0.0000000001     2     1     1     5
 0.0015398355     2     1     1    10
 0.0000676303     2     1     3     2
 -0.0000000002     2     1     3     3
 -0.3760128762     2     1     3     4
 -0.0000000006     2     1     3     5
 0.0125439907     2     1     3    10
 -0.3759997897     2     1     4     3
 0.0000000003     2     1     4     4
 0.0279262908     2     1     4     5
 0.0000000004     2     1     4    10
 0.0018044740     2     1     5     2
 -0.0000000007     2     1     5     3
 0.0279230160     2     1     5     4
 -0.0000000052     2     1     5     5
 0.3413467309     2     1     5    10
 0.0000000033     2     1     6     6
 0.0000000001     2     1     6     7
 0.1538235346     2     1     6     8
 -0.3074144291     2     1     6     9
 0.0000000001     2     1     7     6
 0.0000000038     2     1     7     7
 0.3074144291     2     1     7     8
 0.1538235346     2     1     7     9
 0.1538306381     2     1     8     6
 0.3074286254     2     1     8     7
 0.0000000004     2     1     8     8
 -0.0000000001     2     1     8     9
 -0.3074286253     2     1     9     6
 0.1538306381     2     1     9     7
 -0.0000000001     2     1     9     8
 0.0000000009     2     1     9     9
 -0.0000000001     2     1    10     2
 0.0125491051     2     1    10     3
 0.0000000004     2     1    10     4
 0.3413807330     2     1    10     5
 -0.0000000018     2     1    10    10
 0.1603272403     2     2     1     1
 -0.0000676303     2     2     1     3
 -0.0018044740     2     2     1     5
 0.0000000001     2     2     1    10
 -0.0000676303     2     2     3     1
 0.5340921561     2     2     3     3
 -0.0000000190     2     2     3     4
 0.0065732791     2     2     3     5
 0.0000000009     2     2     3    10
 -0.0000000190     2     2     4     3
 0.5372611844     2     2     4     4
 0.0000000010     2     2     4     5
 -0.0151522796     2     2     4    10
 -0.0018044740     2     2     5     1
 0.0065732791     2     2     5     3
 0.0000000010     2     2     5     4
 0.5372013728     2     2     5     5
 0.0000000159     2     2     5    10
 0.5407384111     2     2     6     6
 0.0000000079     2     2     6     8
 -0.0000000157     2     2     6     9
 0.5407384111     2     2     7     7
 0.0000000157     2     2     7     8
 0.0000000079     2     2     7     9
 0.0000000079     2     2     8     6
 0.0000000157     2     2     8     7
 0.5119597033     2     2     8     8
 -0.0000000157     2     2     9     6
 0.0000000079     2     2     9     7
 0.5119597033     2     2     9     9
 0.0000000001     2     2    10     1
 0.0000000009     2     2    10     3
 -0.0151522796     2     2    10     4
 0.0000000159     2     2    10     5
 0.5242819738     2     2    10    10
 0.0000676303     2     3     1     2
 -0.0000124113     2     3     1     4
 -0.0000049651     2     3     1    10
 0.0000000002     2     3     3     1
 -0.5340921561     2     3     3     2
 0.0001404237     2     3     3     4
 0.0009534814     2     3     3    10
 0.3759997897     2     3     4     1
 0.0000000190     2     3     4     2
 0.0015861576     2     3     4     5
 0.0000000007     2     3     5     1
 -0.0065732791     2     3     5     2
 0.0006959366     2     3     5     4
 0.0198565805     2     3     5    10
 0.0000000009     2     3     6     6
 0.0087780246     2     3     6     8
 -0.0175427734     2     3     6     9
 0.0000000009     2     3     7     7
 0.0175427734     2     3     7     8
 0.0087780246     2     3     7     9
 0.0082295667     2     3     8     6
 0.0164466873     2     3     8     7
 0.0000000004     2     3     8     8
 -0.0164466873     2     3     9     6
 0.0082295667     2     3     9     7
 0.0000000005     2     3     9     9
 -0.0125491051     2     3    10     1
 -0.0000000009     2     3    10     2
 0.0182310315     2     3    10     5
 0.0000000004     2     3    10    10
 -0.0000416985     2     4     1     1
 0.0000124113     2     4     1     3
 0.0000032348     2     4     1     5
 0.3760128762     2     4     3     1
 0.0000000190     2     4     3     2
 -0.0001404237     2     4     3     3
 0.0008894144     2     4     3     5
 -0.0000000003     2     4     4     1
 -0.5372611844     2     4     4     2
 0.0000749815     2     4     4    10
 -0.0279230160     2     4     5     1
 -0.0000000010     2     4     5     2
 -0.0006959366     2     4     5     3
 -0.0208618176     2     4     5     5
 -0.0000000004     2     4     5    10
 -0.0215642141     2     4     6     6
 -0.0000000002     2     4     6     8
 0.0000000005     2     4     6     9
 -0.0215642141     2     4     7     7
 -0.0000000005     2     4     7     8
 -0.0000000002     2     4     7     9
 -0.0000000003     2     4     8     6
 -0.0000000004     2     4     8     7
 -0.0179501469     2     4     8     8
 0.0000000004     2     4     9     6
 -0.0000000003     2     4     9     7
 -0.0179501469     2     4     9     9
 -0.0000000004     2     4    10     1
 0.0151522796     2     4    10     2
 -0.0000000004     2     4    10     5
 -0.0187108178     2     4    10    10
 -0.0000000001     2     5     1     1
 0.0018044740     2     5     1     2
 -0.0000032348     2     5     1     4
 -0.0000343463     2     5     1    10
 0.0000000006     2     5     3     1
 -0.0065732791     2     5     3     2
 -0.0008894144     2     5     3     4
 0.0010087337     2     5     3    10
 -0.0279262908     2     5     4     1
 -0.0000000010     2     5     4     2
 -0.0015861576     2     5     4     3
 0.0000000052     2     5     5     1
 -0.5372013728     2     5     5     2
 0.0208618176     2     5     5     4
 0.0003564058     2     5     5    10
 0.0002072155     2     5     6     8
 -0.0004141177     2     5     6     9
 0.0004141177     2     5     7     8
 0.0002072155     2     5     7     9
 0.0003376716     2     5     8     6
 0.0006748323     2     5     8     7
 -0.0006748323     2     5     9     6
 0.0003376716     2     5     9     7
 -0.3413807330     2     5    10     1
 -0.0000000159     2     5    10     2
 -0.0182310315     2     5    10     3
 0.0000000004     2     5    10     4
 -0.0000000001     2     5    10    10
 -0.0000075931     2     6     1     8
 0.0000151748     2     6     1     9
 0.0002723867     2     6     3     8
 -0.0005443615     2     6     3     9
 -0.0000076278     2     6     5     8
 0.0000152440     2     6     5     9
 -0.0000000033     2     6     6     1
 -0.5407384111     2     6     6     2
 -0.0000000009     2     6     6     3
 0.0215642141     2     6     6     4
 -0.0003770805     2     6     6    10
 -0.0000000001     2     6     7     1
 -0.1538306381     2     6     8     1
 -0.0000000079     2     6     8     2
 -0.0082295667     2     6     8     3
 0.0000000003     2     6     8     4
 -0.0003376716     2     6     8     5
 0.3074286253     2     6     9     1
 0.0000000157     2     6     9     2
 0.0164466873     2     6     9     3
 -0.0000000004     2     6     9     4
 0.0006748323     2     6     9     5
 -0.0000000001     2     6     9    10
 0.0000000001     2     6    10     8
 -0.0000000001     2     6    10     9
 -0.0000151748     2     7     1     8
 -0.0000075931     2     7     1     9
 0.0005443615     2     7     3     8
 0.0002723867     2     7     3     9
 -0.0000000001     2     7     4     8
 -0.0000152440     2     7     5     8
 -0.0000076278     2     7     5     9
 -0.0000000001     2     7     6     1
 -0.0000000038     2     7     7     1
 -0.5407384111     2     7     7     2
 -0.0000000009     2     7     7     3
 0.0215642141     2     7     7     4
 -0.0003770805     2     7     7    10
 -0.3074286254     2     7     8     1
 -0.0000000157     2     7     8     2
 -0.0164466873     2     7     8     3
 0.0000000004     2     7     8     4
 -0.0006748323     2     7     8     5
 0.0000000001     2     7     8    10
 -0.1538306381     2     7     9     1
 -0.0000000079     2     7     9     2
 -0.0082295667     2     7     9     3
 0.0000000003     2     7     9     4
 -0.0003376716     2     7     9     5
 0.0000000001     2     7    10     8
 0.0000000001     2     7    10     9
 0.0000075931     2     8     1     6
 0.0000151748     2     8     1     7
 -0.0002723867     2     8     3     6
 -0.0005443615     2     8     3     7
 0.0000000001     2     8     4     7
 0.0000076278     2     8     5     6
 0.0000152440     2     8     5     7
 -0.1538235346     2     8     6     1
 -0.0000000079     2     8     6     2
 -0.0087780246     2     8     6     3
 0.0000000002     2     8     6     4
 -0.0002072155     2     8     6     5
 -0.3074144291     2     8     7     1
 -0.0000000157     2     8     7     2
 -0.0175427734     2     8     7     3
 0.0000000005     2     8     7     4
 -0.0004141177     2     8     7     5
 -0.0000000004     2     8     8     1
 -0.5119597033     2     8     8     2
 -0.0000000004     2     8     8     3
 0.0179501469     2     8     8     4
 -0.0004318561     2     8     8    10
 0.0000000001     2     8     9     1
 -0.0000000001     2     8    10     6
 -0.0000000001     2     8    10     7
 -0.0000151748     2     9     1     6
 0.0000075931     2     9     1     7
 0.0005443615     2     9     3     6
 -0.0002723867     2     9     3     7
 -0.0000152440     2     9     5     6
 0.0000076278     2     9     5     7
 0.3074144291     2     9     6     1
 0.0000000157     2     9     6     2
 0.0175427734     2     9     6     3
 -0.0000000005     2     9     6     4
 0.0004141177     2     9     6     5
 -0.1538235346     2     9     7     1
 -0.0000000079     2     9     7     2
 -0.0087780246     2     9     7     3
 0.0000000002     2     9     7     4
 -0.0002072155     2     9     7     5
 0.0000000001     2     9     8     1
 -0.0000000009     2     9     9     1
 -0.5119597033     2     9     9     2
 -0.0000000005     2     9     9     3
 0.0179501469     2     9     9     4
 -0.0004318561     2     9     9    10
 0.0000000001     2     9    10     6
 -0.0000000001     2     9    10     7
 -0.0015398355     2    10     1     1
 -0.0000000001     2    10     1     2
 0.0000049651     2    10     1     3
 0.0000343463     2    10     1     5
 -0.0125439907     2    10     3     1
 -0.0000000009     2    10     3     2
 -0.0009534814     2    10     3     3
 -0.0010087337     2    10     3     5
 -0.0000000004     2    10     4     1
 0.0151522796     2    10     4     2
 -0.0000749815     2    10     4     4
 -0.3413467309     2    10     5     1
 -0.0000000159     2    10     5     2
 -0.0198565805     2    10     5     3
 0.0000000004     2    10     5     4
 -0.0003564058     2    10     5     5
 0.0003770805     2    10     6     6
 0.0003770805     2    10     7     7
 -0.0000000001     2    10     8     7
 0.0004318561     2    10     8     8
 0.0000000001     2    10     9     6
 0.0004318561     2    10     9     9
 0.0000000018     2    10    10     1
 -0.5242819738     2    10    10     2
 -0.0000000004     2    10    10     3
 0.0187108178     2    10    10     4
 0.0000000001     2    10    10     5
 -0.5341041209     3     1     1     3
 -0.0000000190     3     1     1     4
 -0.0065740105     3     1     1     5
 0.0000000004     3     1     1    10
 -0.0000676303     3     1     2     2
 0.0000000002     3     1     2     3
 0.3760128762     3     1     2     4
 0.0000000006     3     1     2     5
 -0.0125439907     3     1     2    10
 0.0000124113     3     1     4     2
 0.0002180416     3     1     4     4
 -0.0000000001     3     1     4     5
 0.0007182009     3     1     4    10
 0.0009412899     3     1     5     3
 -0.0000000001     3     1     5     4
 0.0211088324     3     1     5     5
 -0.0000000005     3     1     5    10
 0.0215538762     3     1     6     6
 -0.0000000001     3     1     6     8
 0.0000000004     3     1     6     9
 0.0215538762     3     1     7     7
 -0.0000000004     3     1     7     8
 -0.0000000001     3     1     7     9
 -0.0000000002     3     1     8     6
 -0.0000000004     3     1     8     7
 0.0176342735     3     1     8     8
 0.0000000004     3     1     9     6
 -0.0000000002     3     1     9     7
 0.0176342735     3     1     9     9
 0.0000049651     3     1    10     2
 0.0014360306     3     1    10     4
 -0.0000000006     3     1    10     5
 0.0181735964     3     1    10    10
 0.0000000002     3     2     1     3
 0.3759997897     3     2     1     4
 0.0000000007     3     2     1     5
 -0.0125491051     3     2     1    10
 0.0000676303     3     2     2     1
 -0.5340921561     3     2     2     3
 0.0000000190     3     2     2     4
 -0.0065732791     3     2     2     5
 -0.0000000009     3     2     2    10
 -0.0000124113     3     2     4     1
 0.0001404237     3     2     4     3
 0.0006959366     3     2     4     5
 0.0015861576     3     2     5     4
 0.0182310315     3     2     5    10
 0.0000000009     3     2     6     6
 0.0082295667     3     2     6     8
 -0.0164466873     3     2     6     9
 0.0000000009     3     2     7     7
 0.0164466873     3     2     7     8
 0.0082295667     3     2     7     9
 0.0087780246     3     2     8     6
 0.0175427734     3     2     8     7
 0.0000000004     3     2     8     8
 -0.0175427734     3     2     9     6
 0.0087780246     3     2     9     7
 0.0000000005     3     2     9     9
 -0.0000049651     3     2    10     1
 0.0009534814     3     2    10     3
 0.0198565805     3     2    10     5
 0.0000000004     3     2    10    10
 0.5341041209     3     3     1     1
 -0.0000000002     3     3     1     2
 -0.0009412899     3     3     1     5
 -0.0000000002     3     3     2     1
 0.5340921561     3     3     2     2
 -0.0001404237     3     3     2     4
 -0.0009534814     3     3     2    10
 -0.0001404237     3     3     4     2
 0.1577015861     3     3     4     4
 -0.0000000004     3     3     4     5
 -0.0100103901     3     3     4    10
 -0.0009412899     3     3     5     1
 -0.0000000004     3     3     5     4
 0.3434599946     3     3     5     5
 -0.0000000007     3     3     5    10
 0.3444387123     3     3     6     6
 -0.0000000002     3     3     6     8
 0.0000000002     3     3     6     9
 0.3444387123     3     3     7     7
 -0.0000000002     3     3     7     8
 -0.0000000002     3     3     7     9
 -0.0000000002     3     3     8     6
 -0.0000000002     3     3     8     7
 0.3408627203     3     3     8     8
 0.0000000002     3     3     9     6
 -0.0000000002     3     3     9     7
 0.3408627203     3     3     9     9
 -0.0009534814     3     3    10     2
 -0.0100103901     3     3    10     4
 -0.0000000007     3     3    10     5
 0.3487216866     3     3    10    10
 0.0000000190     3     4     1     1
 -0.3759997897     3     4     1     2
 -0.0007106874     3     4     1    10
 -0.3760128762     3     4     2     1
 -0.0000000190     3     4     2     2
 0.0001404237     3     4     2     3
 -0.0008894144     3     4     2     5
 -0.0002180416     3     4     4     1
 -0.1577015861     3     4     4     3
 -0.0271836549     3     4     4     5
 -0.0000000004     3     4     4    10
 0.0000000001     3     4     5     1
 -0.0015861576     3     4     5     2
 0.0000000004     3     4     5     3
 0.0000000014     3     4     5     5
 -0.1734978764     3     4     5    10
 -0.0000000010     3     4     6     6
 -0.0000000001     3     4     6     7
 -0.0778327439     3     4     6     8
 0.1555477751     3     4     6     9
 -0.0000000001     3     4     7     6
 -0.0000000012     3     4     7     7
 -0.1555477751     3     4     7     8
 -0.0778327439     3     4     7     9
 -0.0769440230     3     4     8     6
 -0.1537716773     3     4     8     7
 -0.0000000002     3     4     8     8
 0.0000000001     3     4     8     9
 0.1537716773     3     4     9     6
 -0.0769440230     3     4     9     7
 0.0000000001     3     4     9     8
 -0.0000000005     3     4     9     9
 -0.0014360306     3     4    10     1
 0.0100103901     3     4    10     3
 -0.1686696154     3     4    10     5
 0.0000000011     3     4    10    10
 0.0065740105     3     5     1     1
 -0.0000000007     3     5     1     2
 0.0009412899     3     5     1     3
 -0.0000000006     3     5     2     1
 0.0065732791     3     5     2     2
 0.0008894144     3     5     2     4
 -0.0010087337     3     5     2    10
 0.0000000001     3     5     4     1
 -0.0006959366     3     5     4     2
 0.0000000004     3     5     4     3
 0.0271836549     3     5     4     4
 -0.0049665329     3     5     4    10
 -0.0211088324     3     5     5     1
 -0.3434599946     3     5     5     3
 -0.0000000014     3     5     5     4
 -0.0000000007     3     5     5    10
 0.0084074370     3     5     6     6
 -0.0000000004     3     5     6     8
 0.0000000007     3     5     6     9
 0.0084074370     3     5     7     7
 -0.0000000007     3     5     7     8
 -0.0000000004     3     5     7     9
 -0.0000000002     3     5     8     6
 -0.0000000005     3     5     8     7
 0.0085517815     3     5     8     8
 0.0000000005     3     5     9     6
 -0.0000000002     3     5     9     7
 0.0085517815     3     5     9     9
 0.0000000006     3     5    10     1
 -0.0198565805     3     5    10     2
 0.0000000007     3     5    10     3
 0.1686696154     3     5    10     4
 0.0084828909     3     5    10    10
 0.0000000001     3     6     1     9
 -0.0002723867     3     6     2     8
 0.0005443615     3     6     2     9
 -0.0009207571     3     6     4     8
 0.0018401218     3     6     4     9
 0.0000000003     3     6     5     8
 -0.0000000007     3     6     5     9
 -0.0215538762     3     6     6     1
 -0.0000000009     3     6     6     2
 -0.3444387123     3     6     6     3
 0.0000000010     3     6     6     4
 -0.0084074370     3     6     6     5
 -0.0000000008     3     6     6    10
 0.0000000001     3     6     7     4
 0.0000000002     3     6     8     1
 -0.0087780246     3     6     8     2
 0.0000000002     3     6     8     3
 0.0769440230     3     6     8     4
 0.0000000002     3     6     8     5
 -0.0002962741     3     6     8    10
 -0.0000000004     3     6     9     1
 0.0175427734     3     6     9     2
 -0.0000000002     3     6     9     3
 -0.1537716773     3     6     9     4
 -0.0000000005     3     6     9     5
 0.0005921002     3     6     9    10
 0.0003490626     3     6    10     8
 -0.0006975972     3     6    10     9
 -0.0000000001     3     7     1     8
 -0.0005443615     3     7     2     8
 -0.0002723867     3     7     2     9
 -0.0018401218     3     7     4     8
 -0.0009207571     3     7     4     9
 0.0000000007     3     7     5     8
 0.0000000003     3     7     5     9
 0.0000000001     3     7     6     4