&FCI NORB= 10,NELEC= 14,MS2=0,
 ORBSYM=1,1,1,1,1,1,1,1,1,1
 ISYM=1,
&END
 0.1763657320     1     1     2     2
 -0.0000816669     1     1     2     4
 0.0000000004     1     1     2     5
 -0.0018772618     1     1     2    10
 0.5414795544     1     1     3     3
 -0.0000001376     1     1     3     4
 0.0070583640     1     1     3     5
 0.0000000069     1     1     3    10
 -0.0000816669     1     1     4     2
 -0.0000001376     1     1     4     3
 0.5461028714     1     1     4     4
 0.0000000139     1     1     4     5
 -0.0195098618     1     1     4    10
 0.0000000004     1     1     5     2
 0.0070583640     1     1     5     3
 0.0000000139     1     1     5     4
 0.5429735056     1     1     5     5
 0.0000001239     1     1     5    10
 0.5479055808     1     1     6     6
 0.0000000582     1     1     6     8
 -0.0000001114     1     1     6     9
 0.5479055808     1     1     7     7
 0.0000001119     1     1     7     8
 0.0000000580     1     1     7     9
 0.0000000582     1     1     8     6
 0.0000001119     1     1     8     7
 0.5211490054     1     1     8     8
 -0.0000001114     1     1     9     6
 0.0000000580     1     1     9     7
 0.5211490054     1     1     9     9
 -0.0018772618     1     1    10     2
 0.0000000069     1     1    10     3
 -0.0195098618     1     1    10     4
 0.0000001239     1     1    10     5
 0.5374834440     1     1    10    10
 -0.1763657320     1     2     2     1
 -0.0000851222     1     2     2     3
 -0.0021681231     1     2     2     5
 -0.0000000003     1     2     2    10
 -0.0000000003     1     2     3     3
 0.3680299279     1     2     3     4
 -0.0182323127     1     2     3    10
 0.0000816669     1     2     4     1
 0.3680427213     1     2     4     3
 0.0000000003     1     2     4     4
 -0.0371643421     1     2     4     5
 -0.0000000004     1     2     5     1
 -0.0371691545     1     2     5     4
 -0.3314296191     1     2     5    10
 0.0000000026     1     2     6     6
 -0.0000000023     1     2     6     7
 -0.1553632042     1     2     6     8
 0.2986402121     1     2     6     9
 -0.0000000023     1     2     7     6
 -0.0000000027     1     2     7     7
 -0.2986402121     1     2     7     8
 -0.1553632042     1     2     7     9
 -0.1553533933     1     2     8     6
 -0.2986213535     1     2     8     7
 -0.0000000009     1     2     8     8
 -0.0000000004     1     2     8     9
 0.2986213535     1     2     9     6
 -0.1553533933     1     2     9     7
 -0.0000000004     1     2     9     8
 0.0000000010     1     2     9     9
 0.0018772618     1     2    10     1
 -0.0182255425     1     2    10     3
 -0.3313841857     1     2    10     5
 0.0000851222     1     3     2     2
 -0.0000122013     1     3     2     4
 -0.0000066249     1     3     2    10
 -0.5414795544     1     3     3     1
 0.0000000003     1     3     3     2
 -0.0000000001     1     3     3     4
 -0.0011935677     1     3     3     5
 -0.0000000002     1     3     3    10
 0.0000001376     1     3     4     1
 -0.3680427213     1     3     4     2
 -0.0002574362     1     3     4     4
 -0.0000000003     1     3     4     5
 -0.0018228561     1     3     4    10
 -0.0070583640     1     3     5     1
 -0.0000000002     1     3     5     4
 -0.0208633348     1     3     5     5
 -0.0000000037     1     3     5    10
 -0.0214811932     1     3     6     6
 -0.0000000017     1     3     6     8
 0.0000000032     1     3     6     9
 -0.0214811932     1     3     7     7
 -0.0000000034     1     3     7     8
 -0.0000000017     1     3     7     9
 -0.0000000016     1     3     8     6
 -0.0000000031     1     3     8     7
 -0.0177214781     1     3     8     8
 0.0000000030     1     3     9     6
 -0.0000000016     1     3     9     7
 -0.0177214781     1     3     9     9
 -0.0000000069     1     3    10     1
 0.0182255425     1     3    10     2
 -0.0009442744     1     3    10     4
 -0.0000000034     1     3    10     5
 -0.0184493736     1     3    10    10
 0.0000816669     1     4     2     1
 0.0000122013     1     4     2     3
 0.0000047121     1     4     2     5
 0.0000001376     1     4     3     1
 -0.3680299279     1     4     3     2
 0.0000000001     1     4     3     3
 -0.0000000002     1     4     3     5
 -0.0008617115     1     4     3    10
 -0.5461028714     1     4     4     1
 -0.0000000003     1     4     4     2
 0.0002574362     1     4     4     3
 -0.0000273524     1     4     4     5
 -0.0000000139     1     4     5     1
 0.0371691545     1     4     5     2
 0.0000000002     1     4     5     3
 0.0000000038     1     4     5     5
 0.0195336502     1     4     5    10
 0.0000000038     1     4     6     6
 0.0000000002     1     4     6     7
 0.0090068706     1     4     6     8
 -0.0173130682     1     4     6     9
 0.0000000002     1     4     7     6
 0.0000000043     1     4     7     7
 0.0173130682     1     4     7     8
 0.0090068706     1     4     7     9
 0.0085878128     1     4     8     6
 0.0165075523     1     4     8     7
 0.0000000034     1     4     8     8
 -0.0165075523     1     4     9     6
 0.0085878128     1     4     9     7
 0.0000000033     1     4     9     9
 0.0195098618     1     4    10     1
 0.0009442744     1     4    10     3
 0.0184928277     1     4    10     5
 0.0000000036     1     4    10    10
 -0.0000000004     1     5     2     1
 0.0021681231     1     5     2     2
 -0.0000047121     1     5     2     4
 -0.0000457013     1     5     2    10
 -0.0070583640     1     5     3     1
 0.0011935677     1     5     3     3
 0.0000000002     1     5     3     4
 -0.0000000003     1     5     3    10
 -0.0000000139     1     5     4     1
 0.0371643421     1     5     4     2
 0.0000000003     1     5     4     3
 0.0000273524     1     5     4     4
 0.0002852958     1     5     4    10
 -0.5429735056     1     5     5     1
 0.0208633348     1     5     5     3
 -0.0000000038     1     5     5     4
 0.0015894841     1     5     6     6
 0.0015894841     1     5     7     7
 -0.0000000002     1     5     7     8
 -0.0000000001     1     5     8     6
 -0.0000000002     1     5     8     7
 0.0012958709     1     5     8     8
 0.0000000001     1     5     9     6
 -0.0000000001     1     5     9     7
 0.0012958709     1     5     9     9
 -0.0000001239     1     5    10     1
 0.3313841857     1     5    10     2
 0.0000000034     1     5    10     3
 -0.0184928277     1     5    10     4
 0.0037816218     1     5    10    10
 -0.0000103730     1     6     2     8
 0.0000199390     1     6     2     9
 -0.0000000001     1     6     3     8
 0.0000000001     1     6     3     9
 0.0001032516     1     6     4     8
 -0.0001984709     1     6     4     9
 -0.5479055808     1     6     6     1
 -0.0000000026     1     6     6     2
 0.0214811932     1     6     6     3
 -0.0000000038     1     6     6     4
 -0.0015894841     1     6     6     5
 0.0000000001     1     6     6    10
 0.0000000023     1     6     7     2
 -0.0000000002     1     6     7     4
 -0.0000000582     1     6     8     1
 0.1553533933     1     6     8     2
 0.0000000016     1     6     8     3
 -0.0085878128     1     6     8     4
 0.0000000001     1     6     8     5
 0.0011771751     1     6     8    10
 0.0000001114     1     6     9     1
 -0.2986213535     1     6     9     2
 -0.0000000030     1     6     9     3
 0.0165075523     1     6     9     4
 -0.0000000001     1     6     9     5
 -0.0022627740     1     6     9    10
 0.0000373934     1     6    10     8
 -0.0000718779     1     6    10     9
 -0.0000199390     1     7     2     8
 -0.0000103730     1     7     2     9
 -0.0000000001     1     7     3     8
 0.0001984709     1     7     4     8
 0.0001032516     1     7     4     9
 0.0000000023     1     7     6     2
 -0.0000000002     1     7     6     4
 -0.5479055808     1     7     7     1
 0.0000000027     1     7     7     2
 0.0214811932     1     7     7     3
 -0.0000000043     1     7     7     4
 -0.0015894841     1     7     7     5
 0.0000000001     1     7     7    10
 -0.0000001119     1     7     8     1
 0.2986213535     1     7     8     2
 0.0000000031     1     7     8     3
 -0.0165075523     1     7     8     4
 0.0000000002     1     7     8     5
 0.0022627740     1     7     8    10
 -0.0000000580     1     7     9     1
 0.1553533933     1     7     9     2
 0.0000000016     1     7     9     3
 -0.0085878128     1     7     9     4
 0.0000000001     1     7     9     5
 0.0011771751     1     7     9    10
 0.0000718779     1     7    10     8
 0.0000373934     1     7    10     9
 0.0000103730     1     8     2     6
 0.0000199390     1     8     2     7
 0.0000000001     1     8     3     6
 0.0000000001     1     8     3     7
 -0.0001032516     1     8     4     6
 -0.0001984709     1     8     4     7
 -0.0000000582     1     8     6     1
 0.1553632042     1     8     6     2
 0.0000000017     1     8     6     3
 -0.0090068706     1     8     6     4
 0.0012138505     1     8     6    10
 -0.0000001119     1     8     7     1
 0.2986402121     1     8     7     2
 0.0000000034     1     8     7     3
 -0.0173130682     1     8     7     4
 0.0000000002     1     8     7     5
 0.0023332718     1     8     7    10
 -0.5211490054     1     8     8     1
 0.0000000009     1     8     8     2
 0.0177214781     1     8     8     3
 -0.0000000034     1     8     8     4
 -0.0012958709     1     8     8     5
 0.0000000004     1     8     9     2
 -0.0000373934     1     8    10     6
 -0.0000718779     1     8    10     7
 -0.0000199390     1     9     2     6
 0.0000103730     1     9     2     7
 -0.0000000001     1     9     3     6
 0.0001984709     1     9     4     6
 -0.0001032516     1     9     4     7
 0.0000001114     1     9     6     1
 -0.2986402121     1     9     6     2
 -0.0000000032     1     9     6     3
 0.0173130682     1     9     6     4
 -0.0023332718     1     9     6    10
 -0.0000000580     1     9     7     1
 0.1553632042     1     9     7     2
 0.0000000017     1     9     7     3
 -0.0090068706     1     9     7     4
 0.0012138505     1     9     7    10
 0.0000000004     1     9     8     2
 -0.5211490054     1     9     9     1
 -0.0000000010     1     9     9     2
 0.0177214781     1     9     9     3
 -0.0000000033     1     9     9     4
 -0.0012958709     1     9     9     5
 0.0000000003     1     9     9    10
 0.0000718779     1     9    10     6
 -0.0000373934     1     9    10     7
 0.0018772618     1    10     2     1
 0.0000000003     1    10     2     2
 0.0000066249     1    10     2     3
 0.0000457013     1    10     2     5
 -0.0000000069     1    10     3     1
 0.0182323127     1    10     3     2
 0.0000000002     1    10     3     3
 0.0008617115     1    10     3     4
 0.0000000003     1    10     3     5
 0.0195098618     1    10     4     1
 0.0018228561     1    10     4     3
 -0.0002852958     1    10     4     5
 -0.0000001239     1    10     5     1
 0.3314296191     1    10     5     2
 0.0000000037     1    10     5     3
 -0.0195336502     1    10     5     4
 -0.0000000001     1    10     6     6
 -0.0012138505     1    10     6     8
 0.0023332718     1    10     6     9
 -0.0000000001     1    10     7     7
 -0.0023332718     1    10     7     8
 -0.0012138505     1    10     7     9
 -0.0011771751     1    10     8     6
 -0.0022627740     1    10     8     7
 0.0022627740     1    10     9     6
 -0.0011771751     1    10     9     7
 -0.0000000003     1    10     9     9
 -0.5374834440     1    10    10     1
 0.0184493736     1    10    10     3
 -0.0000000036     1    10    10     4
 -0.0037816218     1    10    10     5
 -0.1763657320     2     1     1     2
 0.0000816669     2     1     1     4
 -0.0000000004     2     1     1     5
 0.0018772618     2     1     1    10
 -0.0000851222     2     1     3     2
 -0.0000000003     2     1     3     3
 0.3680427213     2     1     3     4
 -0.0182255425     2     1     3    10
 0.3680299279     2     1     4     3
 0.0000000003     2     1     4     4
 -0.0371691545     2     1     4     5
 -0.0021681231     2     1     5     2
 -0.0371643421     2     1     5     4
 -0.3313841857     2     1     5    10
 0.0000000026     2     1     6     6
 -0.0000000023     2     1     6     7
 -0.1553533933     2     1     6     8
 0.2986213535     2     1     6     9
 -0.0000000023     2     1     7     6
 -0.0000000027     2     1     7     7
 -0.2986213535     2     1     7     8
 -0.1553533933     2     1     7     9
 -0.1553632042     2     1     8     6
 -0.2986402121     2     1     8     7
 -0.0000000009     2     1     8     8
 -0.0000000004     2     1     8     9
 0.2986402121     2     1     9     6
 -0.1553632042     2     1     9     7
 -0.0000000004     2     1     9     8
 0.0000000010     2     1     9     9
 -0.0000000003     2     1    10     2
 -0.0182323127     2     1    10     3
 -0.3314296191     2     1    10     5
 0.1763657320     2     2     1     1
 0.0000851222     2     2     1     3
 0.0021681231     2     2     1     5
 0.0000000003     2     2     1    10
 0.0000851222     2     2     3     1
 0.5414677682     2     2     3     3
 0.0000001376     2     2     3     4
 0.0070568774     2     2     3     5
 -0.0000000068     2     2     3    10
 0.0000001376     2     2     4     3
 0.5461149129     2     2     4     4
 -0.0000000139     2     2     4     5
 -0.0195060607     2     2     4    10
 0.0021681231     2     2     5     1
 0.0070568774     2     2     5     3
 -0.0000000139     2     2     5     4
 0.5430245698     2     2     5     5
 -0.0000001239     2     2     5    10
 0.5479325315     2     2     6     6
 -0.0000000580     2     2     6     8
 0.0000001119     2     2     6     9
 0.5479325315     2     2     7     7
 -0.0000001114     2     2     7     8
 -0.0000000582     2     2     7     9
 -0.0000000580     2     2     8     6
 -0.0000001114     2     2     8     7
 0.5211305312     2     2     8     8
 0.0000001119     2     2     9     6
 -0.0000000582     2     2     9     7
 0.5211305312     2     2     9     9
 0.0000000003     2     2    10     1
 -0.0000000068     2     2    10     3
 -0.0195060607     2     2    10     4
 -0.0000001239     2     2    10     5
 0.5374404032     2     2    10    10
 -0.0000851222     2     3     1     2
 0.0000122013     2     3     1     4
 0.0000066249     2     3     1    10
 0.0000000003     2     3     3     1
 -0.5414677682     2     3     3     2
 0.0001437862     2     3     3     4
 -0.0000000002     2     3     3     5
 0.0012112127     2     3     3    10
 -0.3680299279     2     3     4     1
 -0.0000001376     2     3     4     2
 -0.0000000001     2     3     4     4
 0.0019859026     2     3     4     5
 -0.0000000003     2     3     4    10
 -0.0070568774     2     3     5     2
 0.0009568192     2     3     5     4
 -0.0000000039     2     3     5     5
 0.0199052070     2     3     5    10
 -0.0000000043     2     3     6     6
 0.0000000002     2     3     6     7
 0.0090568696     2     3     6     8
 -0.0174091766     2     3     6     9
 0.0000000002     2     3     7     6
 -0.0000000037     2     3     7     7
 0.0174091766     2     3     7     8
 0.0090568696     2     3     7     9
 0.0084503673     2     3     8     6
 0.0162433537     2     3     8     7
 -0.0000000032     2     3     8     8
 -0.0162433537     2     3     9     6
 0.0084503673     2     3     9     7
 -0.0000000033     2     3     9     9
 0.0182323127     2     3    10     1
 0.0000000068     2     3    10     2
 -0.0000000001     2     3    10     4
 0.0179895898     2     3    10     5
 -0.0000000035     2     3    10    10
 -0.0000816669     2     4     1     1
 -0.0000122013     2     4     1     3
 -0.0000047121     2     4     1     5
 -0.3680427213     2     4     3     1
 -0.0000001376     2     4     3     2
 -0.0001437862     2     4     3     3
 0.0010247359     2     4     3     5
 -0.0000000001     2     4     3    10
 -0.0000000003     2     4     4     1
 -0.5461149129     2     4     4     2
 0.0000000001     2     4     4     3
 -0.0000222143     2     4     4    10
 0.0371643421     2     4     5     1
 0.0000000139     2     4     5     2
 -0.0009568192     2     4     5     3
 -0.0205680582     2     4     5     5
 0.0000000037     2     4     5    10
 -0.0215422508     2     4     6     6
 0.0000000017     2     4     6     8
 -0.0000000033     2     4     6     9
 -0.0215422508     2     4     7     7
 0.0000000032     2     4     7     8
 0.0000000017     2     4     7     9
 0.0000000016     2     4     8     6
 0.0000000030     2     4     8     7
 -0.0181761142     2     4     8     8
 -0.0000000031     2     4     9     6
 0.0000000017     2     4     9     7
 -0.0181761142     2     4     9     9
 0.0195060607     2     4    10     2
 0.0000000001     2     4    10     3
 0.0000000035     2     4    10     5
 -0.0192131687     2     4    10    10
 0.0000000004     2     5     1     1
 -0.0021681231     2     5     1     2
 0.0000047121     2     5     1     4
 0.0000457013     2     5     1    10
 -0.0070568774     2     5     3     2
 0.0000000002     2     5     3     3
 -0.0010247359     2     5     3     4
 0.0012574139     2     5     3    10
 0.0371691545     2     5     4     1
 0.0000000139     2     5     4     2
 -0.0019859026     2     5     4     3
 0.0000000001     2     5     4    10
 -0.5430245698     2     5     5     2
 0.0000000039     2     5     5     3
 0.0205680582     2     5     5     4
 0.0002076700     2     5     5    10
 0.0000000003     2     5     6     6
 0.0002032100     2     5     6     8
 -0.0003906117     2     5     6     9
 0.0000000003     2     5     7     7
 0.0003906117     2     5     7     8
 0.0002032100     2     5     7     9
 0.0003511303     2     5     8     6
 0.0006749451     2     5     8     7
 0.0000000003     2     5     8     8
 -0.0006749451     2     5     9     6
 0.0003511303     2     5     9     7
 0.0000000003     2     5     9     9
 0.3314296191     2     5    10     1
 0.0000001239     2     5    10     2
 -0.0179895898     2     5    10     3
 -0.0000000035     2     5    10     4
 0.0000000007     2     5    10    10
 0.0000103730     2     6     1     8
 -0.0000199390     2     6     1     9
 0.0003125713     2     6     3     8
 -0.0006008265     2     6     3     9
 -0.0000000001     2     6     4     9
 0.0000031563     2     6     5     8
 -0.0000060671     2     6     5     9
 -0.0000000026     2     6     6     1
 -0.5479325315     2     6     6     2
 0.0000000043     2     6     6     3
 0.0215422508     2     6     6     4
 -0.0000000003     2     6     6     5
 -0.0006522674     2     6     6    10
 0.0000000023     2     6     7     1
 -0.0000000002     2     6     7     3
 0.1553632042     2     6     8     1
 0.0000000580     2     6     8     2
 -0.0084503673     2     6     8     3
 -0.0000000016     2     6     8     4
 -0.0003511303     2     6     8     5
 0.0000000002     2     6     8    10
 -0.2986402121     2     6     9     1
 -0.0000001119     2     6     9     2
 0.0162433537     2     6     9     3
 0.0000000031     2     6     9     4
 0.0006749451     2     6     9     5
 -0.0000000003     2     6     9    10
 0.0000000001     2     6    10     8
 0.0000000002     2     6    10     9
 0.0000199390     2     7     1     8
 0.0000103730     2     7     1     9
 0.0006008265     2     7     3     8
 0.0003125713     2     7     3     9
 0.0000000001     2     7     4     9
 0.0000060671     2     7     5     8
 0.0000031563     2     7     5     9
 0.0000000023     2     7     6     1
 -0.0000000002     2     7     6     3
 0.0000000027     2     7     7     1
 -0.5479325315     2     7     7     2
 0.0000000037     2     7     7     3
 0.0215422508     2     7     7     4
 -0.0000000003     2     7     7     5
 -0.0006522674     2     7     7    10
 0.2986402121     2     7     8     1
 0.0000001114     2     7     8     2
 -0.0162433537     2     7     8     3
 -0.0000000030     2     7     8     4
 -0.0006749451     2     7     8     5
 0.0000000006     2     7     8    10
 0.1553632042     2     7     9     1
 0.0000000582     2     7     9     2
 -0.0084503673     2     7     9     3
 -0.0000000017     2     7     9     4
 -0.0003511303     2     7     9     5
 0.0000000002     2     7     9    10
 0.0000000002     2     7    10     8
 -0.0000103730     2     8     1     6
 -0.0000199390     2     8     1     7
 -0.0003125713     2     8     3     6
 -0.0006008265     2     8     3     7
 -0.0000031563     2     8     5     6
 -0.0000060671     2     8     5     7
 0.1553533933     2     8     6     1
 0.0000000580     2     8     6     2
 -0.0090568696     2     8     6     3
 -0.0000000017     2     8     6     4
 -0.0002032100     2     8     6     5
 0.0000000002     2     8     6    10
 0.2986213535     2     8     7     1
 0.0000001114     2     8     7     2
 -0.0174091766     2     8     7     3
 -0.0000000032     2     8     7     4
 -0.0003906117     2     8     7     5
 0.0000000005     2     8     7    10
 0.0000000009     2     8     8     1
 -0.5211305312     2     8     8     2
 0.0000000032     2     8     8     3
 0.0181761142     2     8     8     4
 -0.0000000003     2     8     8     5
 -0.0007570952     2     8     8    10
 0.0000000004     2     8     9     1
 -0.0000000001     2     8    10     6
 -0.0000000002     2     8    10     7
 0.0000199390     2     9     1     6
 -0.0000103730     2     9     1     7
 0.0006008265     2     9     3     6
 -0.0003125713     2     9     3     7
 0.0000000001     2     9     4     6
 -0.0000000001     2     9     4     7
 0.0000060671     2     9     5     6
 -0.0000031563     2     9     5     7
 -0.2986213535     2     9     6     1
 -0.0000001119     2     9     6     2
 0.0174091766     2     9     6     3
 0.0000000033     2     9     6     4
 0.0003906117     2     9     6     5
 -0.0000000004     2     9     6    10
 0.1553533933     2     9     7     1
 0.0000000582     2     9     7     2
 -0.0090568696     2     9     7     3
 -0.0000000017     2     9     7     4
 -0.0002032100     2     9     7     5
 0.0000000002     2     9     7    10
 0.0000000004     2     9     8     1
 -0.0000000010     2     9     9     1
 -0.5211305312     2     9     9     2
 0.0000000033     2     9     9     3
 0.0181761142     2     9     9     4
 -0.0000000003     2     9     9     5
 -0.0007570952     2     9     9    10
 -0.0000000002     2     9    10     6
 -0.0018772618     2    10     1     1
 -0.0000000003     2    10     1     2
 -0.0000066249     2    10     1     3
 -0.0000457013     2    10     1     5
 0.0182255425     2    10     3     1
 0.0000000068     2    10     3     2
 -0.0012112127     2    10     3     3
 0.0000000001     2    10     3     4
 -0.0012574139     2    10     3     5
 0.0195060607     2    10     4     2
 0.0000000003     2    10     4     3
 0.0000222143     2    10     4     4
 -0.0000000001     2    10     4     5
 0.3313841857     2    10     5     1
 0.0000001239     2    10     5     2
 -0.0199052070     2    10     5     3
 -0.0000000037     2    10     5     4
 -0.0002076700     2    10     5     5
 0.0006522674     2    10     6     6
 -0.0000000002     2    10     6     8
 0.0000000004     2    10     6     9
 0.0006522674     2    10     7     7
 -0.0000000005     2    10     7     8
 -0.0000000002     2    10     7     9
 -0.0000000002     2    10     8     6
 -0.0000000006     2    10     8     7
 0.0007570952     2    10     8     8
 0.0000000003     2    10     9     6
 -0.0000000002     2    10     9     7
 0.0007570952     2    10     9     9
 -0.5374404032     2    10    10     2
 0.0000000035     2    10    10     3
 0.0192131687     2    10    10     4
 -0.0000000007     2    10    10     5
 -0.5414795544     3     1     1     3
 0.0000001376     3     1     1     4
 -0.0070583640     3     1     1     5
 -0.0000000069     3     1     1    10
 0.0000851222     3     1     2     2
 0.0000000003     3     1     2     3
 -0.3680427213     3     1     2     4
 0.0182255425     3     1     2    10
 -0.0000122013     3     1     4     2
 -0.0000000001     3     1     4     3
 -0.0002574362     3     1     4     4
 -0.0000000002     3     1     4     5
 -0.0009442744     3     1     4    10
 -0.0011935677     3     1     5     3
 -0.0000000003     3     1     5     4
 -0.0208633348     3     1     5     5
 -0.0000000034     3     1     5    10
 -0.0214811932     3     1     6     6
 -0.0000000016     3     1     6     8
 0.0000000030     3     1     6     9
 -0.0214811932     3     1     7     7
 -0.0000000031     3     1     7     8
 -0.0000000016     3     1     7     9
 -0.0000000017     3     1     8     6
 -0.0000000034     3     1     8     7
 -0.0177214781     3     1     8     8
 0.0000000032     3     1     9     6
 -0.0000000017     3     1     9     7
 -0.0177214781     3     1     9     9
 -0.0000066249     3     1    10     2
 -0.0000000002     3     1    10     3
 -0.0018228561     3     1    10     4
 -0.0000000037     3     1    10     5
 -0.0184493736     3     1    10    10
 0.0000000003     3     2     1     3
 -0.3680299279     3     2     1     4
 0.0182323127     3     2     1    10
 -0.0000851222     3     2     2     1
 -0.5414677682     3     2     2     3
 -0.0000001376     3     2     2     4
 -0.0070568774     3     2     2     5
 0.0000000068     3     2     2    10
 0.0000122013     3     2     4     1
 0.0001437862     3     2     4     3
 -0.0000000001     3     2     4     4
 0.0009568192     3     2     4     5
 -0.0000000001     3     2     4    10
 -0.0000000002     3     2     5     3
 0.0019859026     3     2     5     4
 -0.0000000039     3     2     5     5
 0.0179895898     3     2     5    10
 -0.0000000043     3     2     6     6
 0.0000000002     3     2     6     7
 0.0084503673     3     2     6     8
 -0.0162433537     3     2     6     9
 0.0000000002     3     2     7     6
 -0.0000000037     3     2     7     7
 0.0162433537     3     2     7     8
 0.0084503673     3     2     7     9
 0.0090568696     3     2     8     6
 0.0174091766     3     2     8     7
 -0.0000000032     3     2     8     8
 -0.0174091766     3     2     9     6
 0.0090568696     3     2     9     7
 -0.0000000033     3     2     9     9
 0.0000066249     3     2    10     1
 0.0012112127     3     2    10     3
 -0.0000000003     3     2    10     4
 0.0199052070     3     2    10     5
 -0.0000000035     3     2    10    10
 0.5414795544     3     3     1     1
 -0.0000000003     3     3     1     2
 0.0000000001     3     3     1     4
 0.0011935677     3     3     1     5
 0.0000000002     3     3     1    10
 -0.0000000003     3     3     2     1
 0.5414677682     3     3     2     2
 -0.0001437862     3     3     2     4
 0.0000000002     3     3     2     5
 -0.0012112127     3     3     2    10
 0.0000000001     3     3     4     1
 -0.0001437862     3     3     4     2
 0.1735057665     3     3     4     4
 -0.0110804923     3     3     4    10
 0.0011935677     3     3     5     1
 0.0000000002     3     3     5     2
 0.3497609617     3     3     5     5
 0.0000000001     3     3     5    10
 0.3513314147     3     3     6     6
 -0.0000000003     3     3     6     9
 0.3513314147     3     3     7     7
 -0.0000000001     3     3     7     8
 -0.0000000001     3     3     8     7
 0.3493571375     3     3     8     8
 -0.0000000003     3     3     9     6
 0.3493571375     3     3     9     9
 0.0000000002     3     3    10     1
 -0.0012112127     3     3    10     2
 -0.0110804923     3     3    10     4
 0.0000000001     3     3    10     5
 0.3593588427     3     3    10    10
 -0.0000001376     3     4     1     1
 0.3680299279     3     4     1     2
 -0.0000000001     3     4     1     3
 0.0000000002     3     4     1     5
 0.0008617115     3     4     1    10
 0.3680427213     3     4     2     1
 0.0000001376     3     4     2     2
 0.0001437862     3     4     2     3
 -0.0010247359     3     4     2     5
 0.0000000001     3     4     2    10
 0.0002574362     3     4     4     1
 0.0000000001     3     4     4     2
 -0.1735057665     3     4     4     3
 -0.0337885509     3     4     4     5
 0.0000000003     3     4     5     1
 -0.0019859026     3     4     5     2
 -0.1662187713     3     4     5    10
 0.0000000007     3     4     6     6
 -0.0000000006     3     4     6     7
 -0.0772788711     3     4     6     8
 0.1485459736     3     4     6     9
 -0.0000000006     3     4     7     6
 -0.0000000006     3     4     7     7
 -0.1485459736     3     4     7     8
 -0.0772788711     3     4     7     9
 -0.0760955558     3     4     8     6
 -0.1462713969     3     4     8     7
 -0.0000000005     3     4     8     8
 -0.0000000002     3     4     8     9
 0.1462713969     3     4     9     6
 -0.0760955558     3     4     9     7
 -0.0000000002     3     4     9     8
 0.0000000005     3     4     9     9
 0.0018228561     3     4    10     1
 0.0000000003     3     4    10     2
 0.0110804923     3     4    10     3
 -0.1596819435     3     4    10     5
 0.0070583640     3     5     1     1
 -0.0011935677     3     5     1     3
 -0.0000000002     3     5     1     4
 0.0000000003     3     5     1    10
 0.0070568774     3     5     2     2
 -0.0000000002     3     5     2     3
 0.0010247359     3     5     2     4
 -0.0012574139     3     5     2    10
 0.0000000002     3     5     4     1
 -0.0009568192     3     5     4     2
 0.0337885509     3     5     4     4
 -0.0067346484     3     5     4    10
 0.0208633348     3     5     5     1
 0.0000000039     3     5     5     2
 -0.3497609617     3     5     5     3
 0.0098894506     3     5     6     6
 -0.0000000001     3     5     6     8
 -0.0000000003     3     5     6     9
 0.0098894506     3     5     7     7
 -0.0000000003     3     5     7     8
 0.0000000001     3     5     7     9