&FCI NORB= 10,NELEC= 14,MS2=0,
 ORBSYM=1,1,1,1,1,1,1,1,1,1
 ISYM=1,
&END
 0.1511626390     1     1     2     2
 0.0000242010     1     1     2     4
 0.0000000001     1     1     2     5
 -0.0013650988     1     1     2    10
 0.5298299487     1     1     3     3
 0.0000000310     1     1     3     4
 0.0062960718     1     1     3     5
 0.0000000005     1     1     3    10
 0.0000242010     1     1     4     2
 0.0000000310     1     1     4     3
 0.5322246651     1     1     4     4
 -0.0000000023     1     1     4     5
 0.0128910082     1     1     4    10
 0.0000000001     1     1     5     2
 0.0062960718     1     1     5     3
 -0.0000000023     1     1     5     4
 0.5337151244     1     1     5     5
 0.0000000292     1     1     5    10
 0.5363866312     1     1     6     6
 0.0000000279     1     1     6     8
 0.0000000041     1     1     6     9
 0.5363866312     1     1     7     7
 -0.0000000041     1     1     7     8
 0.0000000278     1     1     7     9
 0.0000000279     1     1     8     6
 -0.0000000041     1     1     8     7
 0.5066413134     1     1     8     8
 0.0000000041     1     1     9     6
 0.0000000278     1     1     9     7
 0.5066413134     1     1     9     9
 -0.0013650988     1     1    10     2
 0.0000000005     1     1    10     3
 0.0128910082     1     1    10     4
 0.0000000292     1     1    10     5
 0.5168397408     1     1    10    10
 -0.1511626390     1     2     2     1
 0.0000611362     1     2     2     3
 0.0016086789     1     2     2     5
 0.0000000003     1     2     3     3
 0.3805058036     1     2     3     4
 0.0000000006     1     2     3     5
 0.0098287340     1     2     3    10
 -0.0000242010     1     2     4     1
 0.3805189328     1     2     4     3
 -0.0000000003     1     2     4     4
 -0.0235036821     1     2     4     5
 0.0000000004     1     2     4    10
 -0.0000000001     1     2     5     1
 0.0000000006     1     2     5     3
 -0.0235063214     1     2     5     4
 0.0000000042     1     2     5     5
 0.3462515943     1     2     5    10
 -0.0000000034     1     2     6     6
 0.0000000003     1     2     6     7
 0.3437121395     1     2     6     8
 0.0511295706     1     2     6     9
 0.0000000003     1     2     7     6
 -0.0000000025     1     2     7     7
 -0.0511295706     1     2     7     8
 0.3437121395     1     2     7     9
 0.3436990131     1     2     8     6
 -0.0511276179     1     2     8     7
 0.0000000001     1     2     8     8
 -0.0000000001     1     2     8     9
 0.0511276179     1     2     9     6
 0.3436990132     1     2     9     7
 -0.0000000001     1     2     9     8
 -0.0000000010     1     2     9     9
 0.0013650988     1     2    10     1
 0.0098244724     1     2    10     3
 0.0000000004     1     2    10     4
 0.3462231693     1     2    10     5
 0.0000000013     1     2    10    10
 -0.0000611362     1     3     2     2
 -0.0000124962     1     3     2     4
 0.0000041279     1     3     2    10
 -0.5298299487     1     3     3     1
 -0.0000000003     1     3     3     2
 0.0008318494     1     3     3     5
 -0.0000000310     1     3     4     1
 -0.3805189328     1     3     4     2
 0.0002001508     1     3     4     4
 -0.0000000001     1     3     4     5
 -0.0012349838     1     3     4    10
 -0.0062960718     1     3     5     1
 -0.0000000006     1     3     5     2
 -0.0000000001     1     3     5     4
 0.0212292594     1     3     5     5
 0.0000000009     1     3     5    10
 0.0215734008     1     3     6     6
 0.0000000008     1     3     6     8
 0.0000000001     1     3     6     9
 0.0215734008     1     3     7     7
 -0.0000000001     1     3     7     8
 0.0000000008     1     3     7     9
 0.0000000008     1     3     8     6
 -0.0000000001     1     3     8     7
 0.0175767506     1     3     8     8
 0.0000000001     1     3     9     6
 0.0000000007     1     3     9     7
 0.0175767506     1     3     9     9
 -0.0000000005     1     3    10     1
 -0.0098244724     1     3    10     2
 -0.0006098006     1     3    10     4
 0.0000000008     1     3    10     5
 0.0180068140     1     3    10    10
 -0.0000242010     1     4     2     1
 0.0000124962     1     4     2     3
 0.0000026147     1     4     2     5
 -0.0000000310     1     4     3     1
 -0.3805058036     1     4     3     2
 -0.0006204040     1     4     3    10
 -0.5322246651     1     4     4     1
 0.0000000003     1     4     4     2
 -0.0002001508     1     4     4     3
 0.0001662640     1     4     4     5
 0.0000000023     1     4     5     1
 0.0235063214     1     4     5     2
 0.0000000001     1     4     5     3
 0.0000000013     1     4     5     5
 0.0195451438     1     4     5    10
 0.0000000006     1     4     6     6
 0.0192867971     1     4     6     8
 0.0028690452     1     4     6     9
 0.0000000006     1     4     7     7
 -0.0028690452     1     4     7     8
 0.0192867971     1     4     7     9
 0.0183801320     1     4     8     6
 -0.0027341725     1     4     8     7
 0.0000000008     1     4     8     8
 0.0027341725     1     4     9     6
 0.0183801320     1     4     9     7
 0.0000000007     1     4     9     9
 -0.0128910082     1     4    10     1
 -0.0000000004     1     4    10     2
 0.0006098006     1     4    10     3
 0.0186429042     1     4    10     5
 0.0000000008     1     4    10    10
 -0.0000000001     1     5     2     1
 -0.0016086789     1     5     2     2
 -0.0000026147     1     5     2     4
 0.0000288081     1     5     2    10
 -0.0062960718     1     5     3     1
 -0.0000000006     1     5     3     2
 -0.0008318494     1     5     3     3
 0.0000000023     1     5     4     1
 0.0235036821     1     5     4     2
 0.0000000001     1     5     4     3
 -0.0001662640     1     5     4     4
 0.0002429025     1     5     4    10
 -0.5337151244     1     5     5     1
 -0.0000000042     1     5     5     2
 -0.0212292594     1     5     5     3
 -0.0000000013     1     5     5     4
 -0.0010281304     1     5     6     6
 -0.0010281304     1     5     7     7
 -0.0008688459     1     5     8     8
 -0.0008688459     1     5     9     9
 -0.0000000292     1     5    10     1
 -0.3462231693     1     5    10     2
 -0.0000000008     1     5    10     3
 -0.0186429042     1     5    10     4
 -0.0024883634     1     5    10    10
 0.0000141083     1     6     2     8
 0.0000020988     1     6     2     9
 0.0002762502     1     6     4     8
 0.0000410941     1     6     4     9
 -0.5363866312     1     6     6     1
 0.0000000034     1     6     6     2
 -0.0215734008     1     6     6     3
 -0.0000000006     1     6     6     4
 0.0010281304     1     6     6     5
 -0.0000000003     1     6     7     2
 -0.0000000279     1     6     8     1
 -0.3436990131     1     6     8     2
 -0.0000000008     1     6     8     3
 -0.0183801320     1     6     8     4
 -0.0016039800     1     6     8    10
 -0.0000000041     1     6     9     1
 -0.0511276179     1     6     9     2
 -0.0000000001     1     6     9     3
 -0.0027341725     1     6     9     4
 -0.0002386032     1     6     9    10
 -0.0000522064     1     6    10     8
 -0.0000077660     1     6    10     9
 -0.0000020988     1     7     2     8
 0.0000141083     1     7     2     9
 -0.0000410941     1     7     4     8
 0.0002762502     1     7     4     9
 -0.0000000003     1     7     6     2
 -0.5363866312     1     7     7     1
 0.0000000025     1     7     7     2
 -0.0215734008     1     7     7     3
 -0.0000000006     1     7     7     4
 0.0010281304     1     7     7     5
 0.0000000041     1     7     8     1
 0.0511276179     1     7     8     2
 0.0000000001     1     7     8     3
 0.0027341725     1     7     8     4
 0.0002386032     1     7     8    10
 -0.0000000278     1     7     9     1
 -0.3436990132     1     7     9     2
 -0.0000000007     1     7     9     3
 -0.0183801320     1     7     9     4
 -0.0016039800     1     7     9    10
 0.0000077660     1     7    10     8
 -0.0000522064     1     7    10     9
 -0.0000141083     1     8     2     6
 0.0000020988     1     8     2     7
 -0.0002762502     1     8     4     6
 0.0000410941     1     8     4     7
 -0.0000000279     1     8     6     1
 -0.3437121395     1     8     6     2
 -0.0000000008     1     8     6     3
 -0.0192867971     1     8     6     4
 -0.0016314225     1     8     6    10
 0.0000000041     1     8     7     1
 0.0511295706     1     8     7     2
 0.0000000001     1     8     7     3
 0.0028690452     1     8     7     4
 0.0002426855     1     8     7    10
 -0.5066413134     1     8     8     1
 -0.0000000001     1     8     8     2
 -0.0175767506     1     8     8     3
 -0.0000000008     1     8     8     4
 0.0008688459     1     8     8     5
 -0.0000000002     1     8     8    10
 0.0000000001     1     8     9     2
 0.0000522064     1     8    10     6
 -0.0000077660     1     8    10     7
 -0.0000020988     1     9     2     6
 -0.0000141083     1     9     2     7
 -0.0000410941     1     9     4     6
 -0.0002762502     1     9     4     7
 -0.0000000041     1     9     6     1
 -0.0511295706     1     9     6     2
 -0.0000000001     1     9     6     3
 -0.0028690452     1     9     6     4
 -0.0002426855     1     9     6    10
 -0.0000000278     1     9     7     1
 -0.3437121395     1     9     7     2
 -0.0000000008     1     9     7     3
 -0.0192867971     1     9     7     4
 -0.0016314225     1     9     7    10
 0.0000000001     1     9     8     2
 -0.5066413134     1     9     9     1
 0.0000000010     1     9     9     2
 -0.0175767506     1     9     9     3
 -0.0000000007     1     9     9     4
 0.0008688459     1     9     9     5
 -0.0000000002     1     9     9    10
 0.0000077660     1     9    10     6
 0.0000522064     1     9    10     7
 0.0013650988     1    10     2     1
 -0.0000041279     1    10     2     3
 -0.0000288081     1    10     2     5
 -0.0000000005     1    10     3     1
 -0.0098287340     1    10     3     2
 0.0006204040     1    10     3     4
 -0.0128910082     1    10     4     1
 -0.0000000004     1    10     4     2
 0.0012349838     1    10     4     3
 -0.0002429025     1    10     4     5
 -0.0000000292     1    10     5     1
 -0.3462515943     1    10     5     2
 -0.0000000009     1    10     5     3
 -0.0195451438     1    10     5     4
 0.0016314225     1    10     6     8
 0.0002426855     1    10     6     9
 -0.0002426855     1    10     7     8
 0.0016314225     1    10     7     9
 0.0016039800     1    10     8     6
 -0.0002386032     1    10     8     7
 0.0000000002     1    10     8     8
 0.0002386032     1    10     9     6
 0.0016039800     1    10     9     7
 0.0000000002     1    10     9     9
 -0.5168397408     1    10    10     1
 -0.0000000013     1    10    10     2
 -0.0180068140     1    10    10     3
 -0.0000000008     1    10    10     4
 0.0024883634     1    10    10     5
 -0.1511626390     2     1     1     2
 -0.0000242010     2     1     1     4
 -0.0000000001     2     1     1     5
 0.0013650988     2     1     1    10
 0.0000611362     2     1     3     2
 0.0000000003     2     1     3     3
 0.3805189328     2     1     3     4
 0.0000000006     2     1     3     5
 0.0098244724     2     1     3    10
 0.3805058036     2     1     4     3
 -0.0000000003     2     1     4     4
 -0.0235063214     2     1     4     5
 0.0000000004     2     1     4    10
 0.0016086789     2     1     5     2
 0.0000000006     2     1     5     3
 -0.0235036821     2     1     5     4
 0.0000000042     2     1     5     5
 0.3462231693     2     1     5    10
 -0.0000000034     2     1     6     6
 0.0000000003     2     1     6     7
 0.3436990131     2     1     6     8
 0.0511276179     2     1     6     9
 0.0000000003     2     1     7     6
 -0.0000000025     2     1     7     7
 -0.0511276179     2     1     7     8
 0.3436990132     2     1     7     9
 0.3437121395     2     1     8     6
 -0.0511295706     2     1     8     7
 0.0000000001     2     1     8     8
 -0.0000000001     2     1     8     9
 0.0511295706     2     1     9     6
 0.3437121395     2     1     9     7
 -0.0000000001     2     1     9     8
 -0.0000000010     2     1     9     9
 0.0098287340     2     1    10     3
 0.0000000004     2     1    10     4
 0.3462515943     2     1    10     5
 0.0000000013     2     1    10    10
 0.1511626390     2     2     1     1
 -0.0000611362     2     2     1     3
 -0.0016086789     2     2     1     5
 -0.0000611362     2     2     3     1
 0.5298177989     2     2     3     3
 -0.0000000310     2     2     3     4
 0.0062954970     2     2     3     5
 -0.0000000011     2     2     3    10
 -0.0000000310     2     2     4     3
 0.5322368753     2     2     4     4
 0.0000000015     2     2     4     5
 0.0128887479     2     2     4    10
 -0.0016086789     2     2     5     1
 0.0062954970     2     2     5     3
 0.0000000015     2     2     5     4
 0.5337479387     2     2     5     5
 -0.0000000273     2     2     5    10
 0.5364035569     2     2     6     6
 -0.0000000282     2     2     6     8
 -0.0000000042     2     2     6     9
 0.5364035569     2     2     7     7
 0.0000000042     2     2     7     8
 -0.0000000283     2     2     7     9
 -0.0000000282     2     2     8     6
 0.0000000042     2     2     8     7
 0.5066294962     2     2     8     8
 -0.0000000042     2     2     9     6
 -0.0000000283     2     2     9     7
 0.5066294962     2     2     9     9
 -0.0000000011     2     2    10     3
 0.0128887479     2     2    10     4
 -0.0000000273     2     2    10     5
 0.5168135660     2     2    10    10
 0.0000611362     2     3     1     2
 0.0000124962     2     3     1     4
 -0.0000041279     2     3     1    10
 -0.0000000003     2     3     3     1
 -0.5298177989     2     3     3     2
 -0.0001396408     2     3     3     4
 0.0008387457     2     3     3    10
 -0.3805058036     2     3     4     1
 0.0000000310     2     3     4     2
 -0.0013755743     2     3     4     5
 0.0000000001     2     3     4    10
 -0.0000000006     2     3     5     1
 -0.0062954970     2     3     5     2
 -0.0005832885     2     3     5     4
 -0.0000000004     2     3     5     5
 0.0198066578     2     3     5    10
 -0.0000000012     2     3     6     6
 0.0193804418     2     3     6     8
 0.0028829754     2     3     6     9
 -0.0000000011     2     3     7     7
 -0.0028829754     2     3     7     8
 0.0193804418     2     3     7     9
 0.0182115340     2     3     8     6
 -0.0027090923     2     3     8     7
 -0.0000000007     2     3     8     8
 0.0027090923     2     3     9     6
 0.0182115340     2     3     9     7
 -0.0000000008     2     3     9     9
 -0.0098287340     2     3    10     1
 0.0000000011     2     3    10     2
 0.0183189792     2     3    10     5
 -0.0000000007     2     3    10    10
 0.0000242010     2     4     1     1
 -0.0000124962     2     4     1     3
 -0.0000026147     2     4     1     5
 -0.3805189328     2     4     3     1
 0.0000000310     2     4     3     2
 0.0001396408     2     4     3     3
 -0.0007925323     2     4     3     5
 0.0000000003     2     4     4     1
 -0.5322368753     2     4     4     2
 0.0001176875     2     4     4    10
 0.0235036821     2     4     5     1
 -0.0000000015     2     4     5     2
 0.0005832885     2     4     5     3
 0.0210090406     2     4     5     5
 -0.0000000007     2     4     5    10
 0.0215627626     2     4     6     6
 -0.0000000008     2     4     6     8
 -0.0000000001     2     4     6     9
 0.0215627626     2     4     7     7
 0.0000000001     2     4     7     8
 -0.0000000008     2     4     7     9
 -0.0000000008     2     4     8     6
 0.0000000001     2     4     8     7
 0.0178284291     2     4     8     8
 -0.0000000001     2     4     9     6
 -0.0000000008     2     4     9     7
 0.0178284291     2     4     9     9
 -0.0000000004     2     4    10     1
 -0.0128887479     2     4    10     2
 -0.0000000007     2     4    10     5
 0.0184396757     2     4    10    10
 0.0000000001     2     5     1     1
 0.0016086789     2     5     1     2
 0.0000026147     2     5     1     4
 -0.0000288081     2     5     1    10
 -0.0000000006     2     5     3     1
 -0.0062954970     2     5     3     2
 0.0007925323     2     5     3     4
 0.0008871725     2     5     3    10
 0.0235063214     2     5     4     1
 -0.0000000015     2     5     4     2
 0.0013755743     2     5     4     3
 -0.0000000042     2     5     5     1
 -0.5337479387     2     5     5     2
 0.0000000004     2     5     5     3
 -0.0210090406     2     5     5     4
 0.0004174957     2     5     5    10
 0.0004511800     2     5     6     8
 0.0000671162     2     5     6     9
 -0.0000671162     2     5     7     8
 0.0004511800     2     5     7     9
 0.0007047785     2     5     8     6
 -0.0001048407     2     5     8     7
 0.0001048407     2     5     9     6
 0.0007047785     2     5     9     7
 -0.3462515943     2     5    10     1
 0.0000000273     2     5    10     2
 -0.0183189792     2     5    10     3
 0.0000000007     2     5    10     4
 0.0000000001     2     5    10    10
 -0.0000141083     2     6     1     8
 -0.0000020988     2     6     1     9
 0.0005688338     2     6     3     8
 0.0000846180     2     6     3     9
 -0.0000203677     2     6     5     8
 -0.0000030299     2     6     5     9
 0.0000000034     2     6     6     1
 -0.5364035569     2     6     6     2
 0.0000000012     2     6     6     3
 -0.0215627626     2     6     6     4
 -0.0002382672     2     6     6    10
 -0.0000000003     2     6     7     1
 -0.3437121395     2     6     8     1
 0.0000000282     2     6     8     2
 -0.0182115340     2     6     8     3
 0.0000000008     2     6     8     4
 -0.0007047785     2     6     8     5
 -0.0000000001     2     6     8    10
 -0.0511295706     2     6     9     1
 0.0000000042     2     6     9     2
 -0.0027090923     2     6     9     3
 0.0000000001     2     6     9     4
 -0.0001048407     2     6     9     5
 -0.0000000001     2     6    10     8
 0.0000020988     2     7     1     8
 -0.0000141083     2     7     1     9
 -0.0000846180     2     7     3     8
 0.0005688338     2     7     3     9
 0.0000030299     2     7     5     8
 -0.0000203677     2     7     5     9
 -0.0000000003     2     7     6     1
 0.0000000025     2     7     7     1
 -0.5364035569     2     7     7     2
 0.0000000011     2     7     7     3
 -0.0215627626     2     7     7     4
 -0.0002382672     2     7     7    10
 0.0511295706     2     7     8     1
 -0.0000000042     2     7     8     2
 0.0027090923     2     7     8     3
 -0.0000000001     2     7     8     4
 0.0001048407     2     7     8     5
 -0.3437121395     2     7     9     1
 0.0000000283     2     7     9     2
 -0.0182115340     2     7     9     3
 0.0000000008     2     7     9     4
 -0.0007047785     2     7     9     5
 -0.0000000001     2     7     9    10
 -0.0000000001     2     7    10     9
 0.0000141083     2     8     1     6
 -0.0000020988     2     8     1     7
 -0.0005688338     2     8     3     6
 0.0000846180     2     8     3     7
 0.0000203677     2     8     5     6
 -0.0000030299     2     8     5     7
 -0.3436990131     2     8     6     1
 0.0000000282     2     8     6     2
 -0.0193804418     2     8     6     3
 0.0000000008     2     8     6     4
 -0.0004511800     2     8     6     5
 0.0511276179     2     8     7     1
 -0.0000000042     2     8     7     2
 0.0028829754     2     8     7     3
 -0.0000000001     2     8     7     4
 0.0000671162     2     8     7     5
 -0.0000000001     2     8     8     1
 -0.5066294962     2     8     8     2
 0.0000000007     2     8     8     3
 -0.0178284291     2     8     8     4
 -0.0002766773     2     8     8    10
 0.0000000001     2     8     9     1
 0.0000000001     2     8    10     6
 0.0000020988     2     9     1     6
 0.0000141083     2     9     1     7
 -0.0000846180     2     9     3     6
 -0.0005688338     2     9     3     7
 0.0000030299     2     9     5     6
 0.0000203677     2     9     5     7
 -0.0511276179     2     9     6     1
 0.0000000042     2     9     6     2
 -0.0028829754     2     9     6     3
 0.0000000001     2     9     6     4
 -0.0000671162     2     9     6     5
 -0.3436990132     2     9     7     1
 0.0000000283     2     9     7     2
 -0.0193804418     2     9     7     3
 0.0000000008     2     9     7     4
 -0.0004511800     2     9     7     5
 0.0000000001     2     9     8     1
 0.0000000010     2     9     9     1
 -0.5066294962     2     9     9     2
 0.0000000008     2     9     9     3
 -0.0178284291     2     9     9     4
 -0.0002766773     2     9     9    10
 0.0000000001     2     9    10     7
 -0.0013650988     2    10     1     1
 0.0000041279     2    10     1     3
 0.0000288081     2    10     1     5
 -0.0098244724     2    10     3     1
 0.0000000011     2    10     3     2
 -0.0008387457     2    10     3     3
 -0.0008871725     2    10     3     5
 -0.0000000004     2    10     4     1
 -0.0128887479     2    10     4     2
 -0.0000000001     2    10     4     3
 -0.0001176875     2    10     4     4
 -0.3462231693     2    10     5     1
 0.0000000273     2    10     5     2
 -0.0198066578     2    10     5     3
 0.0000000007     2    10     5     4
 -0.0004174957     2    10     5     5
 0.0002382672     2    10     6     6
 0.0002382672     2    10     7     7
 0.0000000001     2    10     8     6
 0.0002766773     2    10     8     8
 0.0000000001     2    10     9     7
 0.0002766773     2    10     9     9
 -0.0000000013     2    10    10     1
 -0.5168135660     2    10    10     2
 0.0000000007     2    10    10     3
 -0.0184396757     2    10    10     4
 -0.0000000001     2    10    10     5
 -0.5298299487     3     1     1     3
 -0.0000000310     3     1     1     4
 -0.0062960718     3     1     1     5
 -0.0000000005     3     1     1    10
 -0.0000611362     3     1     2     2
 -0.0000000003     3     1     2     3
 -0.3805189328     3     1     2     4
 -0.0000000006     3     1     2     5
 -0.0098244724     3     1     2    10
 -0.0000124962     3     1     4     2
 0.0002001508     3     1     4     4
 -0.0000000001     3     1     4     5
 -0.0006098006     3     1     4    10
 0.0008318494     3     1     5     3
 -0.0000000001     3     1     5     4
 0.0212292594     3     1     5     5
 0.0000000008     3     1     5    10
 0.0215734008     3     1     6     6
 0.0000000008     3     1     6     8
 0.0000000001     3     1     6     9
 0.0215734008     3     1     7     7
 -0.0000000001     3     1     7     8
 0.0000000007     3     1     7     9
 0.0000000008     3     1     8     6
 -0.0000000001     3     1     8     7
 0.0175767506     3     1     8     8
 0.0000000001     3     1     9     6
 0.0000000008     3     1     9     7
 0.0175767506     3     1     9     9
 0.0000041279     3     1    10     2
 -0.0012349838     3     1    10     4
 0.0000000009     3     1    10     5
 0.0180068140     3     1    10    10
 -0.0000000003     3     2     1     3
 -0.3805058036     3     2     1     4
 -0.0000000006     3     2     1     5
 -0.0098287340     3     2     1    10
 0.0000611362     3     2     2     1
 -0.5298177989     3     2     2     3
 0.0000000310     3     2     2     4
 -0.0062954970     3     2     2     5
 0.0000000011     3     2     2    10
 0.0000124962     3     2     4     1
 -0.0001396408     3     2     4     3
 -0.0005832885     3     2     4     5
 -0.0013755743     3     2     5     4
 -0.0000000004     3     2     5     5
 0.0183189792     3     2     5    10
 -0.0000000012     3     2     6     6
 0.0182115340     3     2     6     8
 0.0027090923     3     2     6     9
 -0.0000000011     3     2     7     7
 -0.0027090923     3     2     7     8
 0.0182115340     3     2     7     9
 0.0193804418     3     2     8     6
 -0.0028829754     3     2     8     7
 -0.0000000007     3     2     8     8
 0.0028829754     3     2     9     6
 0.0193804418     3     2     9     7
 -0.0000000008     3     2     9     9
 -0.0000041279     3     2    10     1
 0.0008387457     3     2    10     3
 0.0000000001     3     2    10     4
 0.0198066578     3     2    10     5
 -0.0000000007     3     2    10    10
 0.5298299487     3     3     1     1
 0.0000000003     3     3     1     2
 -0.0008318494     3     3     1     5
 0.0000000003     3     3     2     1
 0.5298177989     3     3     2     2
 0.0001396408     3     3     2     4
 -0.0008387457     3     3     2    10
 0.0001396408     3     3     4     2
 0.1486736200     3     3     4     4
 -0.0000000004     3     3     4     5
 0.0093162315     3     3     4    10
 -0.0008318494     3     3     5     1
 -0.0000000004     3     3     5     4
 0.3397400905     3     3     5     5
 0.0000000005     3     3     5    10
 0.3403741863     3     3     6     6
 0.0000000003     3     3     6     8
 0.3403741863     3     3     7     7
 0.0000000003     3     3     7     9
 0.0000000003     3     3     8     6
 0.3359988037     3     3     8     8
 0.0000000003     3     3     9     7
 0.3359988037     3     3     9     9
 -0.0008387457     3     3    10     2
 0.0093162315     3     3    10     4
 0.0000000005     3     3    10     5
 0.3426789154     3     3    10    10
 0.0000000310     3     4     1     1
 0.3805058036     3     4     1     2
 0.0006204040     3     4     1    10
 0.3805189328     3     4     2     1
 -0.0000000310     3     4     2     2
 -0.0001396408     3     4     2     3
 0.0007925323     3     4     2     5
 -0.0002001508     3     4     4     1
 -0.1486736200     3     4     4     3
 -0.0238157546     3     4     4     5
 0.0000000003     3     4     4    10
 0.0000000001     3     4     5     1
 0.0013755743     3     4     5     2
 0.0000000004     3     4     5     3
 0.0000000012     3     4     5     5
 0.1774416595     3     4     5    10
 -0.0000000012     3     4     6     6
 0.0000000002     3     4     6     7
 0.1756123879     3     4     6     8
 0.0261235637     3     4     6     9
 0.0000000002     3     4     7     6
 -0.0000000007     3     4     7     7
 -0.0261235637     3     4     7     8
 0.1756123879     3     4     7     9
 0.1739334101     3     4     8     6
 -0.0258738041     3     4     8     7
 -0.0000000001     3     4     8     8
 -0.0000000001     3     4     8     9
 0.0258738041     3     4     9     6
 0.1739334101     3     4     9     7
 -0.0000000001     3     4     9     8
 -0.0000000006     3     4     9     9
 0.0012349838     3     4    10     1
 -0.0000000001     3     4    10     2
 -0.0093162315     3     4    10     3
 0.1734326284     3     4    10     5
 0.0000000008     3     4    10    10
 0.0062960718     3     5     1     1
 0.0000000006     3     5     1     2
 0.0008318494     3     5     1     3
 0.0000000006     3     5     2     1
 0.0062954970     3     5     2     2
 -0.0007925323     3     5     2     4
 -0.0008871725     3     5     2    10
 0.0000000001     3     5     4     1
 0.0005832885     3     5     4     2
 0.0000000004     3     5     4     3
 0.0238157546     3     5     4     4
 0.0041179948     3     5     4    10
 -0.0212292594     3     5     5     1
 0.0000000004     3     5     5     2
 -0.3397400905     3     5     5     3
 -0.0000000012     3     5     5     4
 0.0000000006     3     5     5    10
 0.0076727926     3     5     6     6
 0.0000000007     3     5     6     8
 0.0000000001     3     5     6     9
 0.0076727926     3     5     7     7
 -0.0000000001     3     5     7     8
 0.0000000007     3     5     7     9
 0.0000000004     3     5     8     6
 -0.0000000001     3     5     8     7
 0.0077473377     3     5     8     8
 0.0000000001     3     5     9     6
 0.0000000004     3     5     9     7
 0.0077473377     3     5     9     9
 -0.0000000009     3     5    10     1
 -0.0198066578     3     5    10     2
 -0.0000000005     3     5    10     3
 -0.1734326284     3     5    10     4
 0.0082759442     3     5    10    10
 -0.0005688338     3     6     2     8
 -0.0000846180     3     6     2     9
 0.0017312409     3     6     4     8
 0.0002575341     3     6     4     9
 -0.0000000006     3     6     5     8
 -0.0000000001     3     6     5     9
 -0.0215734008     3     6     6     1
 0.0000000012     3     6     6     2
 -0.3403741863     3     6     6     3
 0.0000000012     3     6     6     4
 -0.0076727926     3     6     6     5
 0.0000000006     3     6     6    10
 -0.0000000002     3     6     7     4
 -0.0000000008     3     6     8     1
 -0.0193804418     3     6     8     2
 -0.0000000003     3     6     8     3
 -0.1739334101     3     6     8     4
 -0.0000000004     3     6     8     5
 -0.0000205156     3     6     8    10
 -0.0000000001     3     6     9     1
 -0.0028829754     3     6     9     2
 -0.0258738041     3     6     9     4
 -0.0000000001     3     6     9     5
 -0.0000030519     3     6     9    10
 0.0006507145     3     6    10     8
 0.0000967983     3     6    10     9
 0.0000846180     3     7     2     8
 -0.0005688338     3     7     2     9
 -0.0002575341     3     7     4     8
 0.0017312409     3     7     4     9
 0.0000000001     3     7     5     8
 -0.0000000006     3     7     5     9
 -0.0000000002     3     7     6     4
 -0.0215734008     3     7     7     1
 0.0000000011     3     7     7     2
 -0.3403741863     3     7     7     3
 0.0000000007     3     7     7     4
 -0.0076727926     3     7     7     5
 0.0000000006     3     7     7    10
 0.0000000001     3     7     8     1
 0.0028829754     3     7     8     2
 0.0258738041     3     7     8     4
 0.0000000001     3     7     8     5
 0.0000030519     3     7     8    10
 -0.0000000008     3     7     9     1
 -0.0193804418     3     7     9     2
 -0.0000000003     3     7     9     3
 -0.1739334101     3     7     9     4