&FCI NORB= 10,NELEC= 14,MS2=0,
 ORBSYM=1,1,1,1,1,1,1,1,1,1
 ISYM=1,
&END
 0.1653392072     1     1     2     2
 -0.0000528221     1     1     2     4
 -0.0000000001     1     1     2     5
 -0.0016408266     1     1     2    10
 0.5364198480     1     1     3     3
 0.0000000267     1     1     3     4
 0.0067211414     1     1     3     5
 -0.0000000013     1     1     3    10
 -0.0000528221     1     1     4     2
 0.0000000267     1     1     4     3
 0.5400103934     1     1     4     4
 -0.0000000016     1     1     4     5
 -0.0164664525     1     1     4    10
 -0.0000000001     1     1     5     2
 0.0067211414     1     1     5     3
 -0.0000000016     1     1     5     4
 0.5389981700     1     1     5     5
 -0.0000000227     1     1     5    10
 0.5430223159     1     1     6     6
 0.0000000167     1     1     6     8
 0.0000000181     1     1     6     9
 0.5430223160     1     1     7     7
 -0.0000000181     1     1     7     8
 0.0000000167     1     1     7     9
 0.0000000167     1     1     8     6
 -0.0000000181     1     1     8     7
 0.5148656122     1     1     8     8
 0.0000000181     1     1     9     6
 0.0000000167     1     1     9     7
 0.5148656122     1     1     9     9
 -0.0016408266     1     1    10     2
 -0.0000000013     1     1    10     3
 -0.0164664525     1     1    10     4
 -0.0000000227     1     1    10     5
 0.5284259144     1     1    10    10
 -0.1653392072     1     2     2     1
 0.0000721166     1     2     2     3
 0.0019153233     1     2     2     5
 -0.0000000001     1     2     2    10
 0.0000000001     1     2     3     3
 -0.3735231835     1     2     3     4
 0.0000000007     1     2     3     5
 0.0141968888     1     2     3    10
 0.0000528221     1     2     4     1
 -0.3735362081     1     2     4     3
 -0.0000000002     1     2     4     4
 0.0306007405     1     2     4     5
 -0.0000000005     1     2     4    10
 0.0000000001     1     2     5     1
 0.0000000007     1     2     5     3
 0.0306044328     1     2     5     4
 0.0000000054     1     2     5     5
 0.3384630771     1     2     5    10
 -0.0000000037     1     2     6     6
 0.0000000001     1     2     6     7
 -0.2313117160     1     2     6     8
 -0.2513995165     1     2     6     9
 0.0000000001     1     2     7     6
 -0.0000000036     1     2     7     7
 0.2513995165     1     2     7     8
 -0.2313117161     1     2     7     9
 -0.2312999085     1     2     8     6
 0.2513866836     1     2     8     7
 -0.0000000008     1     2     8     8
 0.0000000001     1     2     8     9
 -0.2513866836     1     2     9     6
 -0.2312999086     1     2     9     7
 0.0000000001     1     2     9     8
 -0.0000000009     1     2     9     9
 0.0016408266     1     2    10     1
 0.0141912782     1     2    10     3
 -0.0000000005     1     2    10     4
 0.3384257376     1     2    10     5
 0.0000000021     1     2    10    10
 -0.0000721166     1     3     2     2
 0.0000123542     1     3     2     4
 0.0000054580     1     3     2    10
 -0.5364198480     1     3     3     1
 -0.0000000001     1     3     3     2
 0.0010110642     1     3     3     5
 -0.0000000267     1     3     4     1
 0.3735362081     1     3     4     2
 0.0002291845     1     3     4     4
 0.0015521856     1     3     4    10
 -0.0067211414     1     3     5     1
 -0.0000000007     1     3     5     2
 0.0210362640     1     3     5     5
 -0.0000000006     1     3     5    10
 0.0215369097     1     3     6     6
 0.0000000006     1     3     6     8
 0.0000000006     1     3     6     9
 0.0215369097     1     3     7     7
 -0.0000000006     1     3     7     8
 0.0000000006     1     3     7     9
 0.0000000005     1     3     8     6
 -0.0000000005     1     3     8     7
 0.0176635692     1     3     8     8
 0.0000000005     1     3     9     6
 0.0000000005     1     3     9     7
 0.0176635692     1     3     9     9
 0.0000000013     1     3    10     1
 -0.0141912782     1     3    10     2
 0.0007835279     1     3    10     4
 -0.0000000005     1     3    10     5
 0.0182630878     1     3    10    10
 0.0000528221     1     4     2     1
 -0.0000123542     1     4     2     3
 -0.0000036386     1     4     2     5
 -0.0000000267     1     4     3     1
 0.3735231835     1     4     3     2
 0.0007593622     1     4     3    10
 -0.5400103934     1     4     4     1
 0.0000000002     1     4     4     2
 -0.0002291845     1     4     4     3
 0.0000985636     1     4     4     5
 0.0000000016     1     4     5     1
 -0.0306044328     1     4     5     2
 0.0000000001     1     4     5     5
 -0.0195550327     1     4     5    10
 0.0000000011     1     4     6     6
 0.0132179696     1     4     6     8
 0.0143658576     1     4     6     9
 0.0000000011     1     4     7     7
 -0.0143658576     1     4     7     8
 0.0132179696     1     4     7     9
 0.0125999659     1     4     8     6
 -0.0136941846     1     4     8     7
 0.0000000007     1     4     8     8
 0.0136941847     1     4     9     6
 0.0125999660     1     4     9     7
 0.0000000007     1     4     9     9
 0.0164664525     1     4    10     1
 0.0000000005     1     4    10     2
 -0.0007835279     1     4    10     3
 -0.0185897839     1     4    10     5
 0.0000000005     1     4    10    10
 0.0000000001     1     5     2     1
 -0.0019153233     1     5     2     2
 0.0000036386     1     5     2     4
 0.0000376591     1     5     2    10
 -0.0067211414     1     5     3     1
 -0.0000000007     1     5     3     2
 -0.0010110642     1     5     3     3
 -0.0000000001     1     5     3    10
 0.0000000016     1     5     4     1
 -0.0306007405     1     5     4     2
 -0.0000985636     1     5     4     4
 -0.0002590475     1     5     4    10
 -0.5389981700     1     5     5     1
 -0.0000000054     1     5     5     2
 -0.0210362640     1     5     5     3
 -0.0000000001     1     5     5     4
 -0.0013150124     1     5     6     6
 -0.0013150124     1     5     7     7
 -0.0010839777     1     5     8     8
 -0.0010839777     1     5     9     9
 0.0000000227     1     5    10     1
 -0.3384257376     1     5    10     2
 0.0000000005     1     5    10     3
 0.0185897839     1     5    10     4
 -0.0031725934     1     5    10    10
 -0.0000125804     1     6     2     8
 -0.0000136730     1     6     2     9
 0.0000000001     1     6     3     9
 0.0001699213     1     6     4     8
 0.0001846778     1     6     4     9
 -0.5430223159     1     6     6     1
 0.0000000037     1     6     6     2
 -0.0215369097     1     6     6     3
 -0.0000000011     1     6     6     4
 0.0013150124     1     6     6     5
 -0.0000000001     1     6     7     2
 -0.0000000167     1     6     8     1
 0.2312999085     1     6     8     2
 -0.0000000005     1     6     8     3
 -0.0125999659     1     6     8     4
 0.0014359678     1     6     8    10
 -0.0000000181     1     6     9     1
 0.2513866836     1     6     9     2
 -0.0000000005     1     6     9     3
 -0.0136941847     1     6     9     4
 0.0015606716     1     6     9    10
 0.0000462215     1     6    10     8
 0.0000502356     1     6    10     9
 0.0000136730     1     7     2     8
 -0.0000125804     1     7     2     9
 -0.0000000001     1     7     3     8
 -0.0001846778     1     7     4     8
 0.0001699213     1     7     4     9
 -0.0000000001     1     7     6     2
 -0.5430223160     1     7     7     1
 0.0000000036     1     7     7     2
 -0.0215369097     1     7     7     3
 -0.0000000011     1     7     7     4
 0.0013150124     1     7     7     5
 0.0000000181     1     7     8     1
 -0.2513866836     1     7     8     2
 0.0000000005     1     7     8     3
 0.0136941846     1     7     8     4
 -0.0015606716     1     7     8    10
 -0.0000000167     1     7     9     1
 0.2312999086     1     7     9     2
 -0.0000000005     1     7     9     3
 -0.0125999660     1     7     9     4
 0.0014359678     1     7     9    10
 -0.0000502356     1     7    10     8
 0.0000462215     1     7    10     9
 0.0000125804     1     8     2     6
 -0.0000136730     1     8     2     7
 0.0000000001     1     8     3     7
 -0.0001699213     1     8     4     6
 0.0001846778     1     8     4     7
 -0.0000000167     1     8     6     1
 0.2313117160     1     8     6     2
 -0.0000000006     1     8     6     3
 -0.0132179696     1     8     6     4
 0.0014723192     1     8     6    10
 0.0000000181     1     8     7     1
 -0.2513995165     1     8     7     2
 0.0000000006     1     8     7     3
 0.0143658576     1     8     7     4
 -0.0016001798     1     8     7    10
 -0.5148656122     1     8     8     1
 0.0000000008     1     8     8     2
 -0.0176635692     1     8     8     3
 -0.0000000007     1     8     8     4
 0.0010839777     1     8     8     5
 -0.0000000001     1     8     8    10
 -0.0000000001     1     8     9     2
 -0.0000462215     1     8    10     6
 0.0000502356     1     8    10     7
 0.0000136730     1     9     2     6
 0.0000125804     1     9     2     7
 -0.0000000001     1     9     3     6
 -0.0001846778     1     9     4     6
 -0.0001699213     1     9     4     7
 -0.0000000181     1     9     6     1
 0.2513995165     1     9     6     2
 -0.0000000006     1     9     6     3
 -0.0143658576     1     9     6     4
 0.0016001798     1     9     6    10
 -0.0000000167     1     9     7     1
 0.2313117161     1     9     7     2
 -0.0000000006     1     9     7     3
 -0.0132179696     1     9     7     4
 0.0014723192     1     9     7    10
 -0.0000000001     1     9     8     2
 -0.5148656122     1     9     9     1
 0.0000000009     1     9     9     2
 -0.0176635692     1     9     9     3
 -0.0000000007     1     9     9     4
 0.0010839777     1     9     9     5
 -0.0000000001     1     9     9    10
 -0.0000502356     1     9    10     6
 -0.0000462215     1     9    10     7
 0.0016408266     1    10     2     1
 0.0000000001     1    10     2     2
 -0.0000054580     1    10     2     3
 -0.0000376591     1    10     2     5
 0.0000000013     1    10     3     1
 -0.0141968888     1    10     3     2
 -0.0007593622     1    10     3     4
 0.0000000001     1    10     3     5
 0.0164664525     1    10     4     1
 0.0000000005     1    10     4     2
 -0.0015521856     1    10     4     3
 0.0002590475     1    10     4     5
 0.0000000227     1    10     5     1
 -0.3384630771     1    10     5     2
 0.0000000006     1    10     5     3
 0.0195550327     1    10     5     4
 -0.0014723192     1    10     6     8
 -0.0016001798     1    10     6     9
 0.0016001798     1    10     7     8
 -0.0014723192     1    10     7     9
 -0.0014359678     1    10     8     6
 0.0015606716     1    10     8     7
 0.0000000001     1    10     8     8
 -0.0015606716     1    10     9     6
 -0.0014359678     1    10     9     7
 0.0000000001     1    10     9     9
 -0.5284259144     1    10    10     1
 -0.0000000021     1    10    10     2
 -0.0182630878     1    10    10     3
 -0.0000000005     1    10    10     4
 0.0031725934     1    10    10     5
 -0.1653392072     2     1     1     2
 0.0000528221     2     1     1     4
 0.0000000001     2     1     1     5
 0.0016408266     2     1     1    10
 0.0000721166     2     1     3     2
 0.0000000001     2     1     3     3
 -0.3735362081     2     1     3     4
 0.0000000007     2     1     3     5
 0.0141912782     2     1     3    10
 -0.3735231835     2     1     4     3
 -0.0000000002     2     1     4     4
 0.0306044328     2     1     4     5
 -0.0000000005     2     1     4    10
 0.0019153233     2     1     5     2
 0.0000000007     2     1     5     3
 0.0306007405     2     1     5     4
 0.0000000054     2     1     5     5
 0.3384257376     2     1     5    10
 -0.0000000037     2     1     6     6
 0.0000000001     2     1     6     7
 -0.2312999085     2     1     6     8
 -0.2513866836     2     1     6     9
 0.0000000001     2     1     7     6
 -0.0000000036     2     1     7     7
 0.2513866836     2     1     7     8
 -0.2312999086     2     1     7     9
 -0.2313117160     2     1     8     6
 0.2513995165     2     1     8     7
 -0.0000000008     2     1     8     8
 0.0000000001     2     1     8     9
 -0.2513995165     2     1     9     6
 -0.2313117161     2     1     9     7
 0.0000000001     2     1     9     8
 -0.0000000009     2     1     9     9
 -0.0000000001     2     1    10     2
 0.0141968888     2     1    10     3
 -0.0000000005     2     1    10     4
 0.3384630771     2     1    10     5
 0.0000000021     2     1    10    10
 0.1653392072     2     2     1     1
 -0.0000721166     2     2     1     3
 -0.0019153233     2     2     1     5
 0.0000000001     2     2     1    10
 -0.0000721166     2     2     3     1
 0.5364079625     2     2     3     3
 -0.0000000266     2     2     3     4
 0.0067202375     2     2     3     5
 0.0000000007     2     2     3    10
 -0.0000000266     2     2     4     3
 0.5400225260     2     2     4     4
 0.0000000027     2     2     4     5
 -0.0164634296     2     2     4    10
 -0.0019153233     2     2     5     1
 0.0067202375     2     2     5     3
 0.0000000027     2     2     5     4
 0.5390406538     2     2     5     5
 0.0000000256     2     2     5    10
 0.5430445090     2     2     6     6
 -0.0000000164     2     2     6     8
 -0.0000000177     2     2     6     9
 0.5430445091     2     2     7     7
 0.0000000177     2     2     7     8
 -0.0000000164     2     2     7     9
 -0.0000000164     2     2     8     6
 0.0000000177     2     2     8     7
 0.5148502586     2     2     8     8
 -0.0000000177     2     2     9     6
 -0.0000000164     2     2     9     7
 0.5148502586     2     2     9     9
 0.0000000001     2     2    10     1
 0.0000000007     2     2    10     3
 -0.0164634296     2     2    10     4
 0.0000000256     2     2    10     5
 0.5283909871     2     2    10    10
 0.0000721166     2     3     1     2
 -0.0000123542     2     3     1     4
 -0.0000054580     2     3     1    10
 -0.0000000001     2     3     3     1
 -0.5364079625     2     3     3     2
 0.0001411222     2     3     3     4
 0.0000000001     2     3     3     5
 0.0010254007     2     3     3    10
 0.3735231835     2     3     4     1
 0.0000000266     2     3     4     2
 0.0017069276     2     3     4     5
 0.0000000001     2     3     4    10
 -0.0000000007     2     3     5     1
 -0.0067202375     2     3     5     2
 0.0007680196     2     3     5     4
 0.0000000013     2     3     5     5
 0.0198771497     2     3     5    10
 0.0000000004     2     3     6     6
 -0.0132868668     2     3     6     8
 -0.0144407380     2     3     6     9
 0.0000000004     2     3     7     7
 0.0144407380     2     3     7     8
 -0.0132868668     2     3     7     9
 -0.0124394156     2     3     8     6
 0.0135196916     2     3     8     7
 0.0000000006     2     3     8     8
 -0.0135196916     2     3     9     6
 -0.0124394156     2     3     9     7
 0.0000000006     2     3     9     9
 -0.0141968888     2     3    10     1
 -0.0000000007     2     3    10     2
 0.0181677098     2     3    10     5
 0.0000000007     2     3    10    10
 -0.0000528221     2     4     1     1
 0.0000123542     2     4     1     3
 0.0000036386     2     4     1     5
 0.3735362081     2     4     3     1
 0.0000000266     2     4     3     2
 -0.0001411222     2     4     3     3
 0.0009372363     2     4     3     5
 0.0000000002     2     4     4     1
 -0.5400225260     2     4     4     2
 0.0000478024     2     4     4    10
 -0.0306007405     2     4     5     1
 -0.0000000027     2     4     5     2
 -0.0007680196     2     4     5     3
 -0.0207744170     2     4     5     5
 -0.0000000007     2     4     5    10
 -0.0215612543     2     4     6     6
 0.0000000004     2     4     6     8
 0.0000000005     2     4     6     9
 -0.0215612543     2     4     7     7
 -0.0000000005     2     4     7     8
 0.0000000004     2     4     7     9
 0.0000000004     2     4     8     6
 -0.0000000005     2     4     8     7
 -0.0180191250     2     4     8     8
 0.0000000005     2     4     9     6
 0.0000000004     2     4     9     7
 -0.0180191250     2     4     9     9
 0.0000000005     2     4    10     1
 0.0164634296     2     4    10     2
 -0.0000000008     2     4    10     5
 -0.0188648623     2     4    10    10
 -0.0000000001     2     5     1     1
 0.0019153233     2     5     1     2
 -0.0000036386     2     5     1     4
 -0.0000376591     2     5     1    10
 -0.0000000007     2     5     3     1
 -0.0067202375     2     5     3     2
 -0.0000000001     2     5     3     3
 -0.0009372363     2     5     3     4
 0.0010815612     2     5     3    10
 -0.0306044328     2     5     4     1
 -0.0000000027     2     5     4     2
 -0.0017069276     2     5     4     3
 -0.0000000054     2     5     5     1
 -0.5390406538     2     5     5     2
 -0.0000000013     2     5     5     3
 0.0207744170     2     5     5     4
 0.0003155740     2     5     5    10
 -0.0003121809     2     5     6     8
 -0.0003392917     2     5     6     9
 0.0003392917     2     5     7     8
 -0.0003121809     2     5     7     9
 -0.0005191665     2     5     8     6
 0.0005642525     2     5     8     7
 -0.0000000001     2     5     8     8
 -0.0005642525     2     5     9     6
 -0.0005191665     2     5     9     7
 -0.0000000001     2     5     9     9
 -0.3384630771     2     5    10     1
 -0.0000000256     2     5    10     2
 -0.0181677098     2     5    10     3
 0.0000000008     2     5    10     4
 -0.0000000001     2     5    10    10
 0.0000125804     2     6     1     8
 0.0000136730     2     6     1     9
 -0.0004256802     2     6     3     8
 -0.0004626475     2     6     3     9
 0.0000083009     2     6     5     8
 0.0000090219     2     6     5     9
 0.0000000037     2     6     6     1
 -0.5430445090     2     6     6     2
 -0.0000000004     2     6     6     3
 0.0215612543     2     6     6     4
 -0.0004591479     2     6     6    10
 -0.0000000001     2     6     7     1
 0.2313117160     2     6     8     1
 0.0000000164     2     6     8     2
 0.0124394156     2     6     8     3
 -0.0000000004     2     6     8     4
 0.0005191665     2     6     8     5
 0.0000000001     2     6     8    10
 0.2513995165     2     6     9     1
 0.0000000177     2     6     9     2
 0.0135196916     2     6     9     3
 -0.0000000005     2     6     9     4
 0.0005642525     2     6     9     5
 0.0000000001     2     6     9    10
 0.0000000002     2     6    10     8
 0.0000000002     2     6    10     9
 -0.0000136730     2     7     1     8
 0.0000125804     2     7     1     9
 0.0004626475     2     7     3     8
 -0.0004256802     2     7     3     9
 -0.0000090219     2     7     5     8
 0.0000083009     2     7     5     9
 -0.0000000001     2     7     6     1
 0.0000000036     2     7     7     1
 -0.5430445091     2     7     7     2
 -0.0000000004     2     7     7     3
 0.0215612543     2     7     7     4
 -0.0004591479     2     7     7    10
 -0.2513995165     2     7     8     1
 -0.0000000177     2     7     8     2
 -0.0135196916     2     7     8     3
 0.0000000005     2     7     8     4
 -0.0005642525     2     7     8     5
 -0.0000000001     2     7     8    10
 0.2313117161     2     7     9     1
 0.0000000164     2     7     9     2
 0.0124394156     2     7     9     3
 -0.0000000004     2     7     9     4
 0.0005191665     2     7     9     5
 0.0000000001     2     7     9    10
 -0.0000000002     2     7    10     8
 0.0000000002     2     7    10     9
 -0.0000125804     2     8     1     6
 0.0000136730     2     8     1     7
 0.0004256802     2     8     3     6
 -0.0004626475     2     8     3     7
 -0.0000083009     2     8     5     6
 0.0000090219     2     8     5     7
 0.2312999085     2     8     6     1
 0.0000000164     2     8     6     2
 0.0132868668     2     8     6     3
 -0.0000000004     2     8     6     4
 0.0003121809     2     8     6     5
 0.0000000001     2     8     6    10
 -0.2513866836     2     8     7     1
 -0.0000000177     2     8     7     2
 -0.0144407380     2     8     7     3
 0.0000000005     2     8     7     4
 -0.0003392917     2     8     7     5
 -0.0000000001     2     8     7    10
 0.0000000008     2     8     8     1
 -0.5148502586     2     8     8     2
 -0.0000000006     2     8     8     3
 0.0180191250     2     8     8     4
 0.0000000001     2     8     8     5
 -0.0005262884     2     8     8    10
 -0.0000000001     2     8     9     1
 -0.0000000002     2     8    10     6
 0.0000000002     2     8    10     7
 -0.0000136730     2     9     1     6
 -0.0000125804     2     9     1     7
 0.0004626475     2     9     3     6
 0.0004256802     2     9     3     7
 -0.0000090219     2     9     5     6
 -0.0000083009     2     9     5     7
 0.2513866836     2     9     6     1
 0.0000000177     2     9     6     2
 0.0144407380     2     9     6     3
 -0.0000000005     2     9     6     4
 0.0003392917     2     9     6     5
 0.0000000001     2     9     6    10
 0.2312999086     2     9     7     1
 0.0000000164     2     9     7     2
 0.0132868668     2     9     7     3
 -0.0000000004     2     9     7     4
 0.0003121809     2     9     7     5
 0.0000000001     2     9     7    10
 -0.0000000001     2     9     8     1
 0.0000000009     2     9     9     1
 -0.5148502586     2     9     9     2
 -0.0000000006     2     9     9     3
 0.0180191250     2     9     9     4
 0.0000000001     2     9     9     5
 -0.0005262884     2     9     9    10
 -0.0000000002     2     9    10     6
 -0.0000000002     2     9    10     7
 -0.0016408266     2    10     1     1
 -0.0000000001     2    10     1     2
 0.0000054580     2    10     1     3
 0.0000376591     2    10     1     5
 -0.0141912782     2    10     3     1
 -0.0000000007     2    10     3     2
 -0.0010254007     2    10     3     3
 -0.0010815612     2    10     3     5
 0.0000000005     2    10     4     1
 0.0164634296     2    10     4     2
 -0.0000000001     2    10     4     3
 -0.0000478024     2    10     4     4
 -0.3384257376     2    10     5     1
 -0.0000000256     2    10     5     2
 -0.0198771497     2    10     5     3
 0.0000000007     2    10     5     4
 -0.0003155740     2    10     5     5
 0.0004591479     2    10     6     6
 -0.0000000001     2    10     6     8
 -0.0000000001     2    10     6     9
 0.0004591479     2    10     7     7
 0.0000000001     2    10     7     8
 -0.0000000001     2    10     7     9
 -0.0000000001     2    10     8     6
 0.0000000001     2    10     8     7
 0.0005262884     2    10     8     8
 -0.0000000001     2    10     9     6
 -0.0000000001     2    10     9     7
 0.0005262884     2    10     9     9
 -0.0000000021     2    10    10     1
 -0.5283909871     2    10    10     2
 -0.0000000007     2    10    10     3
 0.0188648623     2    10    10     4
 0.0000000001     2    10    10     5
 -0.5364198480     3     1     1     3
 -0.0000000267     3     1     1     4
 -0.0067211414     3     1     1     5
 0.0000000013     3     1     1    10
 -0.0000721166     3     1     2     2
 -0.0000000001     3     1     2     3
 0.3735362081     3     1     2     4
 -0.0000000007     3     1     2     5
 -0.0141912782     3     1     2    10
 0.0000123542     3     1     4     2
 0.0002291845     3     1     4     4
 0.0007835279     3     1     4    10
 0.0010110642     3     1     5     3
 0.0210362640     3     1     5     5
 -0.0000000005     3     1     5    10
 0.0215369097     3     1     6     6
 0.0000000005     3     1     6     8
 0.0000000005     3     1     6     9
 0.0215369097     3     1     7     7
 -0.0000000005     3     1     7     8
 0.0000000005     3     1     7     9
 0.0000000006     3     1     8     6
 -0.0000000006     3     1     8     7
 0.0176635692     3     1     8     8
 0.0000000006     3     1     9     6
 0.0000000006     3     1     9     7
 0.0176635692     3     1     9     9
 0.0000054580     3     1    10     2
 0.0015521856     3     1    10     4
 -0.0000000006     3     1    10     5
 0.0182630878     3     1    10    10
 -0.0000000001     3     2     1     3
 0.3735231835     3     2     1     4
 -0.0000000007     3     2     1     5
 -0.0141968888     3     2     1    10
 0.0000721166     3     2     2     1
 -0.5364079625     3     2     2     3
 0.0000000266     3     2     2     4
 -0.0067202375     3     2     2     5
 -0.0000000007     3     2     2    10
 -0.0000123542     3     2     4     1
 0.0001411222     3     2     4     3
 0.0007680196     3     2     4     5
 0.0000000001     3     2     5     3
 0.0017069276     3     2     5     4
 0.0000000013     3     2     5     5
 0.0181677098     3     2     5    10
 0.0000000004     3     2     6     6
 -0.0124394156     3     2     6     8
 -0.0135196916     3     2     6     9
 0.0000000004     3     2     7     7
 0.0135196916     3     2     7     8
 -0.0124394156     3     2     7     9
 -0.0132868668     3     2     8     6
 0.0144407380     3     2     8     7
 0.0000000006     3     2     8     8
 -0.0144407380     3     2     9     6
 -0.0132868668     3     2     9     7
 0.0000000006     3     2     9     9
 -0.0000054580     3     2    10     1
 0.0010254007     3     2    10     3
 0.0000000001     3     2    10     4
 0.0198771497     3     2    10     5
 0.0000000007     3     2    10    10
 0.5364198480     3     3     1     1
 0.0000000001     3     3     1     2
 -0.0010110642     3     3     1     5
 0.0000000001     3     3     2     1
 0.5364079625     3     3     2     2
 -0.0001411222     3     3     2     4
 -0.0000000001     3     3     2     5
 -0.0010254007     3     3     2    10
 -0.0001411222     3     3     4     2
 0.1626372403     3     3     4     4
 0.0000000004     3     3     4     5
 -0.0103672243     3     3     4    10
 -0.0010110642     3     3     5     1
 -0.0000000001     3     3     5     2
 0.0000000004     3     3     5     4
 0.3454501141     3     3     5     5
 0.0000000007     3     3     5    10
 0.3466212617     3     3     6     6
 -0.0000000002     3     3     6     8
 -0.0000000002     3     3     6     9
 0.3466212617     3     3     7     7
 0.0000000002     3     3     7     8
 -0.0000000002     3     3     7     9
 -0.0000000002     3     3     8     6
 0.0000000002     3     3     8     7
 0.3435189596     3     3     8     8
 -0.0000000002     3     3     9     6
 -0.0000000002     3     3     9     7
 0.3435189596     3     3     9     9
 -0.0010254007     3     3    10     2
 -0.0103672243     3     3    10     4
 0.0000000007     3     3    10     5
 0.3520402067     3     3    10    10
 0.0000000267     3     4     1     1
 -0.3735231835     3     4     1     2
 -0.0007593622     3     4     1    10
 -0.3735362081     3     4     2     1
 -0.0000000266     3     4     2     2
 0.0001411222     3     4     2     3
 -0.0009372363     3     4     2     5
 -0.0002291845     3     4     4     1
 -0.1626372403     3     4     4     3
 -0.0291509665     3     4     4     5
 0.0000000004     3     4     4    10
 -0.0017069276     3     4     5     2
 -0.0000000004     3     4     5     3
 -0.0000000014     3     4     5     5
 -0.1712686681     3     4     5    10
 0.0000000011     3     4     6     6
 0.1164124982     3     4     6     8
 0.1265221074     3     4     6     9
 0.0000000011     3     4     7     7
 -0.1265221074     3     4     7     8
 0.1164124983     3     4     7     9
 0.1149525874     3     4     8     6
 -0.1249354136     3     4     8     7
 0.0000000004     3     4     8     8
 0.1249354136     3     4     9     6
 0.1149525875     3     4     9     7
 0.0000000005     3     4     9     9
 -0.0015521856     3     4    10     1
 -0.0000000001     3     4    10     2
 0.0103672243     3     4    10     3
 -0.1659457564     3     4    10     5
 -0.0000000011     3     4    10    10
 0.0067211414     3     5     1     1
 0.0000000007     3     5     1     2
 0.0010110642     3     5     1     3
 0.0000000001     3     5     1    10
 0.0000000007     3     5     2     1
 0.0067202375     3     5     2     2
 0.0000000001     3     5     2     3
 0.0009372363     3     5     2     4
 -0.0010815612     3     5     2    10
 -0.0007680196     3     5     4     2
 -0.0000000004     3     5     4     3
 0.0291509665     3     5     4     4
 -0.0054787308     3     5     4    10
 -0.0210362640     3     5     5     1
 -0.0000000013     3     5     5     2
 -0.3454501141     3     5     5     3
 0.0000000014     3     5     5     4
 0.0000000007     3     5     5    10
 0.0088398215     3     5     6     6
 -0.0000000006     3     5     6     8
 -0.0000000006     3     5     6     9
 0.0088398215     3     5     7     7
 0.0000000006     3     5     7     8
 -0.0000000006     3     5     7     9
 -0.0000000004     3     5     8     6
 0.0000000005     3     5     8     7
 0.0090077664     3     5     8     8
 -0.0000000005     3     5     9     6
 -0.0000000004     3     5     9     7
 0.0090077664     3     5     9     9
 0.0000000006     3     5    10     1
 -0.0198771497     3     5    10     2
 -0.0000000007     3     5    10     3
 0.1659457564     3     5    10     4
 0.0085610372     3     5    10    10
 -0.0000000001     3     6     1     9
 0.0004256802     3     6     2     8
 0.0004626475     3     6     2     9
 0.0015168615     3     6     4     8
 0.0016485902     3     6     4     9
 0.0000000006     3     6     5     8
 0.0000000007     3     6     5     9
 -0.0215369097     3     6     6     1
 -0.0000000004     3     6     6     2
 -0.3466212617     3     6     6     3
 -0.0000000011     3     6     6     4
 -0.0088398215     3     6     6     5
 0.0000000009     3     6     6    10
 -0.0000000006     3     6     8     1
 0.0132868668     3     6     8     2
 0.0000000002     3     6     8     3
 -0.1149525874     3     6     8     4