&FCI NORB= 10,NELEC= 14,MS2=0,
 ORBSYM=1,1,1,1,1,1,1,1,1,1
 ISYM=1,
&END
 0.1556101443     1     1     2     2
 0.0000322531     1     1     2     4
 0.0000000004     1     1     2     5
 0.0014483272     1     1     2    10
 0.5319113073     1     1     3     3
 0.0000001674     1     1     3     4
 0.0064334067     1     1     3     5
 -0.0000000052     1     1     3    10
 0.0000322531     1     1     4     2
 0.0000001674     1     1     4     3
 0.5346583098     1     1     4     4
 -0.0000000109     1     1     4     5
 -0.0139669752     1     1     4    10
 0.0000000004     1     1     5     2
 0.0064334067     1     1     5     3
 -0.0000000109     1     1     5     4
 0.5354049701     1     1     5     5
 -0.0000001511     1     1     5    10
 0.5385067000     1     1     6     6
 0.0000000250     1     1     6     8
 0.0000001512     1     1     6     9
 0.5385067000     1     1     7     7
 -0.0000001512     1     1     7     8
 0.0000000250     1     1     7     9
 0.0000000250     1     1     8     6
 -0.0000001512     1     1     8     7
 0.5092352201     1     1     8     8
 0.0000001512     1     1     9     6
 0.0000000250     1     1     9     7
 0.5092352201     1     1     9     9
 0.0014483272     1     1    10     2
 -0.0000000052     1     1    10     3
 -0.0139669752     1     1    10     4
 -0.0000001511     1     1    10     5
 0.5204568828     1     1    10    10
 -0.1556101443     1     2     2     1
 0.0000640464     1     2     2     3
 0.0017025585     1     2     2     5
 -0.0000000003     1     2     2    10
 0.0000000003     1     2     3     3
 0.3783221635     1     2     3     4
 -0.0000000007     1     2     3     5
 -0.0111019758     1     2     3    10
 -0.0000322531     1     2     4     1
 0.3783352828     1     2     4     3
 -0.0000000003     1     2     4     4
 -0.0255726646     1     2     4     5
 0.0000000004     1     2     4    10
 -0.0000000004     1     2     5     1
 -0.0000000007     1     2     5     3
 -0.0255755931     1     2     5     4
 -0.0000000045     1     2     5     5
 -0.3439626030     1     2     5    10
 0.0000000026     1     2     6     6
 0.0563528090     1     2     6     8
 0.3410924027     1     2     6     9
 0.0000000038     1     2     7     7
 -0.3410924027     1     2     7     8
 0.0563528090     1     2     7     9
 0.0563504464     1     2     8     6
 -0.3410781024     1     2     8     7
 0.0000000002     1     2     8     9
 0.3410781024     1     2     9     6
 0.0563504464     1     2     9     7
 0.0000000002     1     2     9     8
 0.0000000012     1     2     9     9
 -0.0014483272     1     2    10     1
 -0.0110973096     1     2    10     3
 0.0000000004     1     2    10     4
 -0.3439315547     1     2    10     5
 -0.0000000018     1     2    10    10
 -0.0000640464     1     3     2     2
 -0.0000124580     1     3     2     4
 -0.0000045237     1     3     2    10
 -0.5319113073     1     3     3     1
 -0.0000000003     1     3     3     2
 0.0008822586     1     3     3     5
 -0.0000000002     1     3     3    10
 -0.0000001674     1     3     4     1
 -0.3783352828     1     3     4     2
 0.0002084400     1     3     4     4
 -0.0000000003     1     3     4     5
 0.0013306755     1     3     4    10
 -0.0064334067     1     3     5     1
 0.0000000007     1     3     5     2
 -0.0000000001     1     3     5     4
 0.0211729200     1     3     5     5
 -0.0000000043     1     3     5    10
 0.0215656628     1     3     6     6
 0.0000000007     1     3     6     8
 0.0000000044     1     3     6     9
 0.0215656628     1     3     7     7
 -0.0000000044     1     3     7     8
 0.0000000007     1     3     7     9
 0.0000000007     1     3     8     6
 -0.0000000040     1     3     8     7
 0.0176052329     1     3     8     8
 0.0000000040     1     3     9     6
 0.0000000007     1     3     9     7
 0.0176052329     1     3     9     9
 0.0000000052     1     3    10     1
 0.0110973096     1     3    10     2
 0.0006607000     1     3    10     4
 -0.0000000039     1     3    10     5
 0.0180879554     1     3    10    10
 -0.0000322531     1     4     2     1
 0.0000124580     1     4     2     3
 0.0000028976     1     4     2     5
 -0.0000001674     1     4     3     1
 -0.3783221635     1     4     3     2
 -0.0000000003     1     4     3     5
 0.0006642705     1     4     3    10
 -0.5346583098     1     4     4     1
 0.0000000003     1     4     4     2
 -0.0002084400     1     4     4     3
 0.0001478415     1     4     4     5
 0.0000000109     1     4     5     1
 0.0255755931     1     4     5     2
 0.0000000001     1     4     5     3
 0.0000000042     1     4     5     5
 -0.0195527068     1     4     5    10
 0.0000000050     1     4     6     6
 0.0031800682     1     4     6     8
 0.0192483239     1     4     6     9
 0.0000000051     1     4     7     7
 -0.0192483239     1     4     7     8
 0.0031800682     1     4     7     9
 0.0030308187     1     4     8     6
 -0.0183449458     1     4     8     7
 0.0000000039     1     4     8     8
 0.0183449458     1     4     9     6
 0.0030308187     1     4     9     7
 0.0000000040     1     4     9     9
 0.0139669752     1     4    10     1
 -0.0000000004     1     4    10     2
 -0.0006607000     1     4    10     3
 -0.0186342889     1     4    10     5
 0.0000000040     1     4    10    10
 -0.0000000004     1     5     2     1
 -0.0017025585     1     5     2     2
 -0.0000028976     1     5     2     4
 -0.0000314139     1     5     2    10
 -0.0064334067     1     5     3     1
 0.0000000007     1     5     3     2
 -0.0008822586     1     5     3     3
 0.0000000003     1     5     3     4
 -0.0000000002     1     5     3    10
 0.0000000109     1     5     4     1
 0.0255726646     1     5     4     2
 0.0000000003     1     5     4     3
 -0.0001478415     1     5     4     4
 -0.0002461978     1     5     4    10
 -0.5354049701     1     5     5     1
 0.0000000045     1     5     5     2
 -0.0211729200     1     5     5     3
 -0.0000000042     1     5     5     4
 -0.0000000001     1     5     5    10
 -0.0011106558     1     5     6     6
 0.0000000001     1     5     6     9
 -0.0011106558     1     5     7     7
 -0.0000000001     1     5     7     8
 -0.0000000002     1     5     8     7
 -0.0009301088     1     5     8     8
 0.0000000002     1     5     9     6
 -0.0009301088     1     5     9     9
 0.0000001511     1     5    10     1
 0.3439315547     1     5    10     2
 0.0000000039     1     5    10     3
 0.0186342889     1     5    10     4
 -0.0026909901     1     5    10    10
 0.0000025328     1     6     2     8
 0.0000153303     1     6     2     9
 0.0000000001     1     6     3     9
 0.0000441898     1     6     4     8
 0.0002674724     1     6     4     9
 -0.5385067000     1     6     6     1
 -0.0000000026     1     6     6     2
 -0.0215656628     1     6     6     3
 -0.0000000050     1     6     6     4
 0.0011106558     1     6     6     5
 0.0000000001     1     6     6    10
 -0.0000000250     1     6     8     1
 -0.0563504464     1     6     8     2
 -0.0000000007     1     6     8     3
 -0.0030308187     1     6     8     4
 0.0002887138     1     6     8    10
 -0.0000001512     1     6     9     1
 -0.3410781024     1     6     9     2
 -0.0000000040     1     6     9     3
 -0.0183449458     1     6     9     4
 -0.0000000002     1     6     9     5
 0.0017475279     1     6     9    10
 0.0000093727     1     6    10     8
 0.0000567311     1     6    10     9
 -0.0000153303     1     7     2     8
 0.0000025328     1     7     2     9
 -0.0000000001     1     7     3     8
 -0.0002674724     1     7     4     8
 0.0000441898     1     7     4     9
 -0.5385067000     1     7     7     1
 -0.0000000038     1     7     7     2
 -0.0215656628     1     7     7     3
 -0.0000000051     1     7     7     4
 0.0011106558     1     7     7     5
 0.0000000001     1     7     7    10
 0.0000001512     1     7     8     1
 0.3410781024     1     7     8     2
 0.0000000040     1     7     8     3
 0.0183449458     1     7     8     4
 0.0000000002     1     7     8     5
 -0.0017475279     1     7     8    10
 -0.0000000250     1     7     9     1
 -0.0563504464     1     7     9     2
 -0.0000000007     1     7     9     3
 -0.0030308187     1     7     9     4
 0.0002887138     1     7     9    10
 -0.0000567311     1     7    10     8
 0.0000093727     1     7    10     9
 -0.0000025328     1     8     2     6
 0.0000153303     1     8     2     7
 0.0000000001     1     8     3     7
 -0.0000441898     1     8     4     6
 0.0002674724     1     8     4     7
 -0.0000000250     1     8     6     1
 -0.0563528090     1     8     6     2
 -0.0000000007     1     8     6     3
 -0.0031800682     1     8     6     4
 0.0002944084     1     8     6    10
 0.0000001512     1     8     7     1
 0.3410924027     1     8     7     2
 0.0000000044     1     8     7     3
 0.0192483239     1     8     7     4
 0.0000000001     1     8     7     5
 -0.0017819953     1     8     7    10
 -0.5092352201     1     8     8     1
 -0.0176052329     1     8     8     3
 -0.0000000039     1     8     8     4
 0.0009301088     1     8     8     5
 -0.0000000001     1     8     8    10
 -0.0000000002     1     8     9     2
 -0.0000093727     1     8    10     6
 0.0000567311     1     8    10     7
 -0.0000153303     1     9     2     6
 -0.0000025328     1     9     2     7
 -0.0000000001     1     9     3     6
 -0.0002674724     1     9     4     6
 -0.0000441898     1     9     4     7
 -0.0000001512     1     9     6     1
 -0.3410924027     1     9     6     2
 -0.0000000044     1     9     6     3
 -0.0192483239     1     9     6     4
 -0.0000000001     1     9     6     5
 0.0017819953     1     9     6    10
 -0.0000000250     1     9     7     1
 -0.0563528090     1     9     7     2
 -0.0000000007     1     9     7     3
 -0.0031800682     1     9     7     4
 0.0002944084     1     9     7    10
 -0.0000000002     1     9     8     2
 -0.5092352201     1     9     9     1
 -0.0000000012     1     9     9     2
 -0.0176052329     1     9     9     3
 -0.0000000040     1     9     9     4
 0.0009301088     1     9     9     5
 -0.0000000001     1     9     9    10
 -0.0000567311     1     9    10     6
 -0.0000093727     1     9    10     7
 -0.0014483272     1    10     2     1
 0.0000000003     1    10     2     2
 0.0000045237     1    10     2     3
 0.0000314139     1    10     2     5
 0.0000000052     1    10     3     1
 0.0111019758     1    10     3     2
 0.0000000002     1    10     3     3
 -0.0006642705     1    10     3     4
 0.0000000002     1    10     3     5
 0.0139669752     1    10     4     1
 -0.0000000004     1    10     4     2
 -0.0013306755     1    10     4     3
 0.0002461978     1    10     4     5
 0.0000001511     1    10     5     1
 0.3439626030     1    10     5     2
 0.0000000043     1    10     5     3
 0.0195527068     1    10     5     4
 0.0000000001     1    10     5     5
 -0.0000000001     1    10     6     6
 -0.0002944084     1    10     6     8
 -0.0017819953     1    10     6     9
 -0.0000000001     1    10     7     7
 0.0017819953     1    10     7     8
 -0.0002944084     1    10     7     9
 -0.0002887138     1    10     8     6
 0.0017475279     1    10     8     7
 0.0000000001     1    10     8     8
 -0.0017475279     1    10     9     6
 -0.0002887138     1    10     9     7
 0.0000000001     1    10     9     9
 -0.5204568828     1    10    10     1
 0.0000000018     1    10    10     2
 -0.0180879554     1    10    10     3
 -0.0000000040     1    10    10     4
 0.0026909901     1    10    10     5
 -0.1556101443     2     1     1     2
 -0.0000322531     2     1     1     4
 -0.0000000004     2     1     1     5
 -0.0014483272     2     1     1    10
 0.0000640464     2     1     3     2
 0.0000000003     2     1     3     3
 0.3783352828     2     1     3     4
 -0.0000000007     2     1     3     5
 -0.0110973096     2     1     3    10
 0.3783221635     2     1     4     3
 -0.0000000003     2     1     4     4
 -0.0255755931     2     1     4     5
 0.0000000004     2     1     4    10
 0.0017025585     2     1     5     2
 -0.0000000007     2     1     5     3
 -0.0255726646     2     1     5     4
 -0.0000000045     2     1     5     5
 -0.3439315547     2     1     5    10
 0.0000000026     2     1     6     6
 0.0563504464     2     1     6     8
 0.3410781024     2     1     6     9
 0.0000000038     2     1     7     7
 -0.3410781024     2     1     7     8
 0.0563504464     2     1     7     9
 0.0563528090     2     1     8     6
 -0.3410924027     2     1     8     7
 0.0000000002     2     1     8     9
 0.3410924027     2     1     9     6
 0.0563528090     2     1     9     7
 0.0000000002     2     1     9     8
 0.0000000012     2     1     9     9
 -0.0000000003     2     1    10     2
 -0.0111019758     2     1    10     3
 0.0000000004     2     1    10     4
 -0.3439626030     2     1    10     5
 -0.0000000018     2     1    10    10
 0.1556101443     2     2     1     1
 -0.0000640464     2     2     1     3
 -0.0017025585     2     2     1     5
 0.0000000003     2     2     1    10
 -0.0000640464     2     2     3     1
 0.5318992524     2     2     3     3
 -0.0000001674     2     2     3     4
 0.0064327806     2     2     3     5
 0.0000000046     2     2     3    10
 -0.0000001674     2     2     4     3
 0.5346704971     2     2     4     4
 0.0000000117     2     2     4     5
 -0.0139645116     2     2     4    10
 -0.0017025585     2     2     5     1
 0.0064327806     2     2     5     3
 0.0000000117     2     2     5     4
 0.5354406572     2     2     5     5
 0.0000001533     2     2     5    10
 0.5385251774     2     2     6     6
 -0.0000000249     2     2     6     8
 -0.0000001507     2     2     6     9
 0.5385251774     2     2     7     7
 0.0000001507     2     2     7     8
 -0.0000000249     2     2     7     9
 -0.0000000249     2     2     8     6
 0.0000001507     2     2     8     7
 0.5092223500     2     2     8     8
 -0.0000001507     2     2     9     6
 -0.0000000249     2     2     9     7
 0.5092223500     2     2     9     9
 0.0000000003     2     2    10     1
 0.0000000046     2     2    10     3
 -0.0139645116     2     2    10     4
 0.0000001533     2     2    10     5
 0.5204281548     2     2    10    10
 0.0000640464     2     3     1     2
 0.0000124580     2     3     1     4
 0.0000045237     2     3     1    10
 -0.0000000003     2     3     3     1
 -0.5318992524     2     3     3     2
 -0.0001399549     2     3     3     4
 -0.0000000003     2     3     3     5
 -0.0008919479     2     3     3    10
 -0.3783221635     2     3     4     1
 0.0000001674     2     3     4     2
 -0.0000000001     2     3     4     4
 -0.0014760542     2     3     4     5
 -0.0000000002     2     3     4    10
 0.0000000007     2     3     5     1
 -0.0064327806     2     3     5     2
 -0.0006350561     2     3     5     4
 -0.0000000051     2     3     5     5
 -0.0198327996     2     3     5    10
 -0.0000000045     2     3     6     6
 0.0031958803     2     3     6     8
 0.0193440308     2     3     6     9
 -0.0000000045     2     3     7     7
 -0.0193440308     2     3     7     8
 0.0031958803     2     3     7     9
 0.0029998685     2     3     8     6
 -0.0181576105     2     3     8     7
 -0.0000000039     2     3     8     8
 0.0181576105     2     3     9     6
 0.0029998685     2     3     9     7
 -0.0000000039     2     3     9     9
 0.0111019758     2     3    10     1
 -0.0000000046     2     3    10     2
 -0.0000000001     2     3    10     4
 -0.0182807104     2     3    10     5
 -0.0000000041     2     3    10    10
 0.0000322531     2     4     1     1
 -0.0000124580     2     4     1     3
 -0.0000028976     2     4     1     5
 -0.3783352828     2     4     3     1
 0.0000001674     2     4     3     2
 0.0001399549     2     4     3     3
 -0.0008408147     2     4     3     5
 -0.0000000002     2     4     3    10
 0.0000000003     2     4     4     1
 -0.5346704971     2     4     4     2
 0.0000000001     2     4     4     3
 -0.0000980970     2     4     4    10
 0.0255726646     2     4     5     1
 -0.0000000117     2     4     5     2
 0.0006350561     2     4     5     3
 0.0209397394     2     4     5     5
 0.0000000044     2     4     5    10
 0.0215644462     2     4     6     6
 -0.0000000007     2     4     6     8
 -0.0000000042     2     4     6     9
 0.0215644462     2     4     7     7
 0.0000000042     2     4     7     8
 -0.0000000007     2     4     7     9
 -0.0000000007     2     4     8     6
 0.0000000040     2     4     8     7
 0.0178867385     2     4     8     8
 -0.0000000040     2     4     9     6
 -0.0000000007     2     4     9     7
 0.0178867385     2     4     9     9
 -0.0000000004     2     4    10     1
 0.0139645116     2     4    10     2
 0.0000000001     2     4    10     3
 0.0000000043     2     4    10     5
 0.0185693180     2     4    10    10
 0.0000000004     2     5     1     1
 0.0017025585     2     5     1     2
 0.0000028976     2     5     1     4
 0.0000314139     2     5     1    10
 0.0000000007     2     5     3     1
 -0.0064327806     2     5     3     2
 0.0000000003     2     5     3     3
 0.0008408147     2     5     3     4
 -0.0009442643     2     5     3    10
 0.0255755931     2     5     4     1
 -0.0000000117     2     5     4     2
 0.0014760542     2     5     4     3
 0.0000000001     2     5     4    10
 0.0000000045     2     5     5     1
 -0.5354406572     2     5     5     2
 0.0000000051     2     5     5     3
 -0.0209397394     2     5     5     4
 -0.0003900668     2     5     5    10
 0.0000000002     2     5     6     6
 0.0000751609     2     5     6     8
 0.0004549341     2     5     6     9
 0.0000000002     2     5     7     7
 -0.0004549341     2     5     7     8
 0.0000751609     2     5     7     9
 0.0001199442     2     5     8     6
 -0.0007259990     2     5     8     7
 0.0000000003     2     5     8     8
 0.0007259990     2     5     9     6
 0.0001199442     2     5     9     7
 0.0000000003     2     5     9     9
 0.3439626030     2     5    10     1
 -0.0000001533     2     5    10     2
 0.0182807104     2     5    10     3
 -0.0000000043     2     5    10     4
 0.0000000006     2     5    10    10
 -0.0000025328     2     6     1     8
 -0.0000153303     2     6     1     9
 0.0000963281     2     6     3     8
 0.0005830548     2     6     3     9
 -0.0000000001     2     6     4     9
 -0.0000032009     2     6     5     8
 -0.0000193740     2     6     5     9
 -0.0000000026     2     6     6     1
 -0.5385251774     2     6     6     2
 0.0000000045     2     6     6     3
 -0.0215644462     2     6     6     4
 -0.0000000002     2     6     6     5
 0.0003036612     2     6     6    10
 -0.0563528090     2     6     8     1
 0.0000000249     2     6     8     2
 -0.0029998685     2     6     8     3
 0.0000000007     2     6     8     4
 -0.0001199442     2     6     8     5
 -0.3410924027     2     6     9     1
 0.0000001507     2     6     9     2
 -0.0181576105     2     6     9     3
 0.0000000040     2     6     9     4
 -0.0007259990     2     6     9     5
 -0.0000000005     2     6     9    10
 -0.0000000001     2     6    10     8
 -0.0000000001     2     6    10     9
 0.0000153303     2     7     1     8
 -0.0000025328     2     7     1     9
 -0.0005830548     2     7     3     8
 0.0000963281     2     7     3     9
 0.0000000001     2     7     4     8
 0.0000193740     2     7     5     8
 -0.0000032009     2     7     5     9
 -0.0000000038     2     7     7     1
 -0.5385251774     2     7     7     2
 0.0000000045     2     7     7     3
 -0.0215644462     2     7     7     4
 -0.0000000002     2     7     7     5
 0.0003036612     2     7     7    10
 0.3410924027     2     7     8     1
 -0.0000001507     2     7     8     2
 0.0181576105     2     7     8     3
 -0.0000000040     2     7     8     4
 0.0007259990     2     7     8     5
 0.0000000005     2     7     8    10
 -0.0563528090     2     7     9     1
 0.0000000249     2     7     9     2
 -0.0029998685     2     7     9     3
 0.0000000007     2     7     9     4
 -0.0001199442     2     7     9     5
 0.0000000001     2     7    10     8
 -0.0000000001     2     7    10     9
 0.0000025328     2     8     1     6
 -0.0000153303     2     8     1     7
 -0.0000963281     2     8     3     6
 0.0005830548     2     8     3     7
 -0.0000000001     2     8     4     7
 0.0000032009     2     8     5     6
 -0.0000193740     2     8     5     7
 -0.0563504464     2     8     6     1
 0.0000000249     2     8     6     2
 -0.0031958803     2     8     6     3
 0.0000000007     2     8     6     4
 -0.0000751609     2     8     6     5
 0.3410781024     2     8     7     1
 -0.0000001507     2     8     7     2
 0.0193440308     2     8     7     3
 -0.0000000042     2     8     7     4
 0.0004549341     2     8     7     5
 0.0000000004     2     8     7    10
 -0.5092223500     2     8     8     2
 0.0000000039     2     8     8     3
 -0.0178867385     2     8     8     4
 -0.0000000003     2     8     8     5
 0.0003490893     2     8     8    10
 -0.0000000002     2     8     9     1
 0.0000000001     2     8    10     6
 -0.0000000001     2     8    10     7
 0.0000153303     2     9     1     6
 0.0000025328     2     9     1     7
 -0.0005830548     2     9     3     6
 -0.0000963281     2     9     3     7
 0.0000000001     2     9     4     6
 0.0000193740     2     9     5     6
 0.0000032009     2     9     5     7
 -0.3410781024     2     9     6     1
 0.0000001507     2     9     6     2
 -0.0193440308     2     9     6     3
 0.0000000042     2     9     6     4
 -0.0004549341     2     9     6     5
 -0.0000000004     2     9     6    10
 -0.0563504464     2     9     7     1
 0.0000000249     2     9     7     2
 -0.0031958803     2     9     7     3
 0.0000000007     2     9     7     4
 -0.0000751609     2     9     7     5
 -0.0000000002     2     9     8     1
 -0.0000000012     2     9     9     1
 -0.5092223500     2     9     9     2
 0.0000000039     2     9     9     3
 -0.0178867385     2     9     9     4
 -0.0000000003     2     9     9     5
 0.0003490893     2     9     9    10
 0.0000000001     2     9    10     6
 0.0000000001     2     9    10     7
 0.0014483272     2    10     1     1
 -0.0000000003     2    10     1     2
 -0.0000045237     2    10     1     3
 -0.0000314139     2    10     1     5
 0.0110973096     2    10     3     1
 -0.0000000046     2    10     3     2
 0.0008919479     2    10     3     3
 0.0000000002     2    10     3     4
 0.0009442643     2    10     3     5
 -0.0000000004     2    10     4     1
 0.0139645116     2    10     4     2
 0.0000000002     2    10     4     3
 0.0000980970     2    10     4     4
 -0.0000000001     2    10     4     5
 0.3439315547     2    10     5     1
 -0.0000001533     2    10     5     2
 0.0198327996     2    10     5     3
 -0.0000000044     2    10     5     4
 0.0003900668     2    10     5     5
 -0.0003036612     2    10     6     6
 0.0000000004     2    10     6     9
 -0.0003036612     2    10     7     7
 -0.0000000004     2    10     7     8
 -0.0000000005     2    10     8     7
 -0.0003490893     2    10     8     8
 0.0000000005     2    10     9     6
 -0.0003490893     2    10     9     9
 0.0000000018     2    10    10     1
 -0.5204281548     2    10    10     2
 0.0000000041     2    10    10     3
 -0.0185693180     2    10    10     4
 -0.0000000006     2    10    10     5
 -0.5319113073     3     1     1     3
 -0.0000001674     3     1     1     4
 -0.0064334067     3     1     1     5
 0.0000000052     3     1     1    10
 -0.0000640464     3     1     2     2
 -0.0000000003     3     1     2     3
 -0.3783352828     3     1     2     4
 0.0000000007     3     1     2     5
 0.0110973096     3     1     2    10
 -0.0000124580     3     1     4     2
 0.0002084400     3     1     4     4
 -0.0000000001     3     1     4     5
 0.0006607000     3     1     4    10
 0.0008822586     3     1     5     3
 -0.0000000003     3     1     5     4
 0.0211729200     3     1     5     5
 -0.0000000039     3     1     5    10
 0.0215656628     3     1     6     6
 0.0000000007     3     1     6     8
 0.0000000040     3     1     6     9
 0.0215656628     3     1     7     7
 -0.0000000040     3     1     7     8
 0.0000000007     3     1     7     9
 0.0000000007     3     1     8     6
 -0.0000000044     3     1     8     7
 0.0176052329     3     1     8     8
 0.0000000044     3     1     9     6
 0.0000000007     3     1     9     7
 0.0176052329     3     1     9     9
 -0.0000045237     3     1    10     2
 -0.0000000002     3     1    10     3
 0.0013306755     3     1    10     4
 -0.0000000043     3     1    10     5
 0.0180879554     3     1    10    10
 -0.0000000003     3     2     1     3
 -0.3783221635     3     2     1     4
 0.0000000007     3     2     1     5
 0.0111019758     3     2     1    10
 0.0000640464     3     2     2     1
 -0.5318992524     3     2     2     3
 0.0000001674     3     2     2     4
 -0.0064327806     3     2     2     5
 -0.0000000046     3     2     2    10
 0.0000124580     3     2     4     1
 -0.0001399549     3     2     4     3
 -0.0000000001     3     2     4     4
 -0.0006350561     3     2     4     5
 -0.0000000001     3     2     4    10
 -0.0000000003     3     2     5     3
 -0.0014760542     3     2     5     4
 -0.0000000051     3     2     5     5
 -0.0182807104     3     2     5    10
 -0.0000000045     3     2     6     6
 0.0029998685     3     2     6     8
 0.0181576105     3     2     6     9
 -0.0000000045     3     2     7     7
 -0.0181576105     3     2     7     8
 0.0029998685     3     2     7     9
 0.0031958803     3     2     8     6
 -0.0193440308     3     2     8     7
 -0.0000000039     3     2     8     8
 0.0193440308     3     2     9     6
 0.0031958803     3     2     9     7
 -0.0000000039     3     2     9     9
 0.0000045237     3     2    10     1
 -0.0008919479     3     2    10     3
 -0.0000000002     3     2    10     4
 -0.0198327996     3     2    10     5
 -0.0000000041     3     2    10    10
 0.5319113073     3     3     1     1
 0.0000000003     3     3     1     2
 -0.0008822586     3     3     1     5
 0.0000000002     3     3     1    10
 0.0000000003     3     3     2     1
 0.5318992524     3     3     2     2
 0.0001399549     3     3     2     4
 0.0000000003     3     3     2     5
 0.0008919479     3     3     2    10
 0.0001399549     3     3     4     2
 0.1530558937     3     3     4     4
 0.0000000004     3     3     4     5
 -0.0096592284     3     3     4    10
 -0.0008822586     3     3     5     1
 0.0000000003     3     3     5     2
 0.0000000004     3     3     5     4
 0.3415600218     3     3     5     5
 0.0000000003     3     3     5    10
 0.3423588617     3     3     6     6
 0.3423588617     3     3     7     7
 0.3383603854     3     3     8     8
 0.3383603854     3     3     9     9
 0.0000000002     3     3    10     1
 0.0008919479     3     3    10     2
 -0.0096592284     3     3    10     4
 0.0000000003     3     3    10     5
 0.3456065913     3     3    10    10
 0.0000001674     3     4     1     1
 0.3783221635     3     4     1     2
 0.0000000003     3     4     1     5
 -0.0006642705     3     4     1    10
 0.3783352828     3     4     2     1
 -0.0000001674     3     4     2     2
 -0.0001399549     3     4     2     3
 0.0008408147     3     4     2     5
 0.0000000002     3     4     2    10
 -0.0002084400     3     4     4     1
 0.0000000001     3     4     4     2
 -0.1530558937     3     4     4     3
 -0.0254131467     3     4     4     5
 0.0000000003     3     4     4    10
 0.0000000003     3     4     5     1
 0.0014760542     3     4     5     2
 -0.0000000004     3     4     5     3
 -0.0000000012     3     4     5     5
 -0.1755502729     3     4     5    10
 0.0000000007     3     4     6     6
 0.0286561319     3     4     6     8
 0.1734498963     3     4     6     9
 0.0000000013     3     4     7     7
 -0.1734498963     3     4     7     8
 0.0286561319     3     4     7     9
 0.0283571834     3     4     8     6
 -0.1716404205     3     4     8     7
 0.0000000002     3     4     8     9
 0.1716404205     3     4     9     6
 0.0283571834     3     4     9     7
 0.0000000002     3     4     9     8
 0.0000000007     3     4     9     9
 -0.0013306755     3     4    10     1
 0.0000000002     3     4    10     2
 0.0096592284     3     4    10     3
 -0.1711570488     3     4    10     5
 -0.0000000010     3     4    10    10
 0.0064334067     3     5     1     1
 -0.0000000007     3     5     1     2
 0.0008822586     3     5     1     3
 -0.0000000003     3     5     1     4
 0.0000000002     3     5     1    10
 -0.0000000007     3     5     2     1
 0.0064327806     3     5     2     2
 -0.0000000003     3     5     2     3
 -0.0008408147     3     5     2     4
 0.0009442643     3     5     2    10
 0.0000000001     3     5     4     1
 0.0006350561     3     5     4     2
 -0.0000000004     3     5     4     3
 0.0254131467     3     5     4     4
 -0.0045159371     3     5     4    10
 -0.0211729200     3     5     5     1
 0.0000000051     3     5     5     2
 -0.3415600218     3     5     5     3
 0.0000000012     3     5     5     4
 0.0000000007     3     5     5    10
 0.0080212746     3     5     6     6
 -0.0000000002     3     5     6     8
 -0.0000000009     3     5     6     9
 0.0080212746     3     5     7     7
 0.0000000008     3     5     7     8
 -0.0000000002     3     5     7     9
 -0.0000000001     3     5     8     6
 0.0000000005     3     5     8     7
 0.0081333603     3     5     8     8
 -0.0000000005     3     5     9     6