&FCI NORB= 10,NELEC= 14,MS2=0,
 ORBSYM=1,1,1,1,1,1,1,1,1,1
 ISYM=1,
&END
 0.5885533929     1     1     2     2
 0.0130442299     1     1     2     6
 -0.0037548129     1     1     2    10
 0.9137790057     1     1     3     3
 -0.0000000001     1     1     3     6
 0.1360467086     1     1     3     7
 -0.0000000001     1     1     3    10
 0.7502577004     1     1     4     4
 -0.0000000002     1     1     4     8
 0.0000000001     1     1     4     9
 0.7502577006     1     1     5     5
 0.0000000001     1     1     5     8
 0.0000000003     1     1     5     9
 0.0130442299     1     1     6     2
 -0.0000000001     1     1     6     3
 0.6509075834     1     1     6     6
 0.0000000003     1     1     6     7
 -0.0858765854     1     1     6    10
 0.1360467086     1     1     7     3
 0.0000000003     1     1     7     6
 0.7028810246     1     1     7     7
 0.0000000012     1     1     7    10
 -0.0000000002     1     1     8     4
 0.0000000001     1     1     8     5
 0.4801645799     1     1     8     8
 0.0000000001     1     1     9     4
 0.0000000003     1     1     9     5
 0.4801645799     1     1     9     9
 -0.0037548129     1     1    10     2
 -0.0000000001     1     1    10     3
 -0.0858765854     1     1    10     6
 0.0000000012     1     1    10     7
 0.2584882061     1     1    10    10
 -0.5885533929     1     2     2     1
 -0.0214812887     1     2     2     3
 -0.0270312246     1     2     2     7
 -0.0000000001     1     2     3     3
 -0.1003547809     1     2     3     6
 -0.0000000003     1     2     3     7
 0.0256896024     1     2     3    10
 0.0000000002     1     2     4     4
 0.1201194353     1     2     4     8
 -0.0291006096     1     2     4     9
 0.0000000001     1     2     5     5
 -0.0291006096     1     2     5     8
 -0.1201194353     1     2     5     9
 -0.0130442299     1     2     6     1
 -0.1013372594     1     2     6     3
 0.0000000002     1     2     6     6
 0.2260085417     1     2     6     7
 0.0000000017     1     2     6    10
 -0.0000000003     1     2     7     3
 0.2272329531     1     2     7     6
 -0.0346113723     1     2     7    10
 0.1194269087     1     2     8     4
 -0.0289328354     1     2     8     5
 -0.0000000001     1     2     8     9
 -0.0289328354     1     2     9     4
 -0.1194269087     1     2     9     5
 -0.0000000001     1     2     9     8
 -0.0000000002     1     2     9     9
 0.0037548129     1     2    10     1
 0.0259258420     1     2    10     3
 0.0000000016     1     2    10     6
 -0.0342436893     1     2    10     7
 0.0214812887     1     3     2     2
 0.0009778398     1     3     2     6
 0.0000000001     1     3     2     7
 -0.0002677921     1     3     2    10
 -0.9137790057     1     3     3     1
 0.0000000001     1     3     3     2
 -0.0000000002     1     3     3     6
 -0.0302837819     1     3     3     7
 -0.0000000001     1     3     3    10
 -0.0199193316     1     3     4     4
 0.0000000001     1     3     4     8
 -0.0000000001     1     3     4     9
 -0.0199193319     1     3     5     5
 0.0000000001     1     3     6     1
 0.1013372594     1     3     6     2
 -0.0127249899     1     3     6     6
 0.0000000003     1     3     6     7
 0.0027465982     1     3     6    10
 -0.1360467086     1     3     7     1
 0.0000000003     1     3     7     2
 0.0000000004     1     3     7     6
 -0.0274921539     1     3     7     7
 0.0000000004     1     3     7    10
 0.0000000001     1     3     8     4
 -0.0075576911     1     3     8     8
 -0.0000000003     1     3     8     9
 -0.0000000001     1     3     9     4
 0.0000000001     1     3     9     5
 -0.0000000003     1     3     9     8
 -0.0075576921     1     3     9     9
 0.0000000001     1     3    10     1
 -0.0259258420     1     3    10     2
 0.0022688123     1     3    10     6
 0.0000000004     1     3    10     7
 -0.0016107218     1     3    10    10
 0.0006557610     1     4     2     8
 -0.0001588672     1     4     2     9
 -0.7502577004     1     4     4     1
 -0.0000000002     1     4     4     2
 0.0199193316     1     4     4     3
 0.0000000002     1     4     4     6
 -0.0192458804     1     4     4     7
 0.0000000001     1     4     4    10
 -0.0037066667     1     4     6     8
 0.0008979917     1     4     6     9
 0.0000000001     1     4     7     8
 0.0000000002     1     4     8     1
 -0.1194269087     1     4     8     2
 -0.0000000001     1     4     8     3
 -0.0089239269     1     4     8     6
 0.0000000001     1     4     8     7
 0.0020323960     1     4     8    10
 -0.0000000001     1     4     9     1
 0.0289328354     1     4     9     2
 0.0000000001     1     4     9     3
 0.0021619458     1     4     9     6
 -0.0004923763     1     4     9    10
 0.0001616951     1     4    10     8
 -0.0000391729     1     4    10     9
 -0.0001588673     1     5     2     8
 -0.0006557610     1     5     2     9
 -0.7502577006     1     5     5     1
 -0.0000000001     1     5     5     2
 0.0199193319     1     5     5     3
 0.0000000005     1     5     5     6
 -0.0192458803     1     5     5     7
 0.0008979917     1     5     6     8
 0.0037066667     1     5     6     9
 -0.0000000001     1     5     7     9
 -0.0000000001     1     5     8     1
 0.0289328354     1     5     8     2
 0.0021619458     1     5     8     6
 -0.0004923763     1     5     8    10
 -0.0000000003     1     5     9     1
 0.1194269087     1     5     9     2
 -0.0000000001     1     5     9     3
 0.0089239270     1     5     9     6
 -0.0020323960     1     5     9    10
 -0.0000391729     1     5    10     8
 -0.0001616951     1     5    10     9
 -0.0130442299     1     6     2     1
 -0.0009778398     1     6     2     3
 -0.0012196440     1     6     2     7
 0.0000000001     1     6     3     1
 0.1003547809     1     6     3     2
 0.0000000002     1     6     3     3
 -0.0000000001     1     6     3     7
 0.0002089446     1     6     3    10
 -0.0000000002     1     6     4     4
 0.0061867651     1     6     4     8
 -0.0014988302     1     6     4     9
 -0.0000000005     1     6     5     5
 -0.0014988302     1     6     5     8
 -0.0061867652     1     6     5     9
 -0.6509075834     1     6     6     1
 -0.0000000002     1     6     6     2
 0.0127249899     1     6     6     3
 0.0013248375     1     6     6     7
 -0.0000000003     1     6     7     1
 -0.2272329531     1     6     7     2
 -0.0000000004     1     6     7     3
 0.0000000002     1     6     7     7
 -0.0006559446     1     6     7    10
 0.0089239269     1     6     8     4
 -0.0021619458     1     6     8     5
 -0.0000000018     1     6     8     8
 0.0000000008     1     6     8     9
 -0.0021619458     1     6     9     4
 -0.0089239270     1     6     9     5
 0.0000000008     1     6     9     8
 0.0000000004     1     6     9     9
 0.0858765854     1     6    10     1
 -0.0000000016     1     6    10     2
 -0.0022688123     1     6    10     3
 -0.0005353017     1     6    10     7
 -0.0000000161     1     6    10    10
 0.0270312246     1     7     2     2
 -0.0000000001     1     7     2     3
 0.0012196440     1     7     2     6
 -0.0003570569     1     7     2    10
 -0.1360467086     1     7     3     1
 0.0000000003     1     7     3     2
 0.0302837819     1     7     3     3
 0.0000000001     1     7     3     6
 0.0192458804     1     7     4     4
 0.0192458803     1     7     5     5
 -0.0000000003     1     7     6     1
 -0.2260085417     1     7     6     2
 -0.0000000003     1     7     6     3
 -0.0013248375     1     7     6     6
 -0.0002364538     1     7     6    10
 -0.7028810246     1     7     7     1
 0.0274921539     1     7     7     3
 -0.0000000002     1     7     7     6
 0.0000000011     1     7     7    10
 -0.0000000001     1     7     8     4
 0.0049207384     1     7     8     8
 0.0000000004     1     7     8     9
 0.0000000004     1     7     9     8
 0.0049207395     1     7     9     9
 -0.0000000012     1     7    10     1
 0.0342436893     1     7    10     2
 -0.0000000004     1     7    10     3
 0.0005353017     1     7    10     6
 -0.0009076458     1     7    10    10
 -0.0006557610     1     8     2     4
 0.0001588673     1     8     2     5
 0.0000000002     1     8     4     1
 -0.1201194353     1     8     4     2
 -0.0000000001     1     8     4     3
 -0.0061867651     1     8     4     6
 0.0020070604     1     8     4    10
 -0.0000000001     1     8     5     1
 0.0291006096     1     8     5     2
 0.0014988302     1     8     5     6
 -0.0004862383     1     8     5    10
 0.0037066667     1     8     6     4
 -0.0008979917     1     8     6     5
 -0.0000000001     1     8     7     4
 -0.4801645799     1     8     8     1
 0.0075576911     1     8     8     3
 0.0000000018     1     8     8     6
 -0.0049207384     1     8     8     7
 0.0000000009     1     8     8    10
 0.0000000001     1     8     9     2
 0.0000000003     1     8     9     3
 -0.0000000008     1     8     9     6
 -0.0000000004     1     8     9     7
 0.0000000003     1     8     9    10
 -0.0001616951     1     8    10     4
 0.0000391729     1     8    10     5
 0.0001588672     1     9     2     4
 0.0006557610     1     9     2     5
 -0.0000000001     1     9     4     1
 0.0291006096     1     9     4     2
 0.0000000001     1     9     4     3
 0.0014988302     1     9     4     6
 -0.0004862384     1     9     4    10
 -0.0000000003     1     9     5     1
 0.1201194353     1     9     5     2
 0.0061867652     1     9     5     6
 -0.0020070602     1     9     5    10
 -0.0008979917     1     9     6     4
 -0.0037066667     1     9     6     5
 0.0000000001     1     9     7     5
 0.0000000001     1     9     8     2
 0.0000000003     1     9     8     3
 -0.0000000008     1     9     8     6
 -0.0000000004     1     9     8     7
 0.0000000003     1     9     8    10
 -0.4801645799     1     9     9     1
 0.0000000002     1     9     9     2
 0.0075576921     1     9     9     3
 -0.0000000004     1     9     9     6
 -0.0049207395     1     9     9     7
 0.0000000018     1     9     9    10
 0.0000391729     1     9    10     4
 0.0001616951     1     9    10     5
 0.0037548129     1    10     2     1
 0.0002677921     1    10     2     3
 0.0003570569     1    10     2     7
 0.0000000001     1    10     3     1
 -0.0256896024     1    10     3     2
 0.0000000001     1    10     3     3
 -0.0002089446     1    10     3     6
 -0.0000000001     1    10     4     4
 -0.0020070604     1    10     4     8
 0.0004862384     1    10     4     9
 0.0004862383     1    10     5     8
 0.0020070602     1    10     5     9
 0.0858765854     1    10     6     1
 -0.0000000017     1    10     6     2
 -0.0027465982     1    10     6     3
 0.0002364538     1    10     6     7
 -0.0000000012     1    10     7     1
 0.0346113723     1    10     7     2
 -0.0000000004     1    10     7     3
 0.0006559446     1    10     7     6
 -0.0000000011     1    10     7     7
 -0.0020323960     1    10     8     4
 0.0004923763     1    10     8     5
 -0.0000000009     1    10     8     8
 -0.0000000003     1    10     8     9
 0.0004923763     1    10     9     4
 0.0020323960     1    10     9     5
 -0.0000000003     1    10     9     8
 -0.0000000018     1    10     9     9
 -0.2584882061     1    10    10     1
 0.0016107218     1    10    10     3
 0.0000000161     1    10    10     6
 0.0009076458     1    10    10     7
 -0.5885533929     2     1     1     2
 -0.0130442299     2     1     1     6
 0.0037548129     2     1     1    10
 -0.0214812887     2     1     3     2
 -0.0000000001     2     1     3     3
 -0.1013372594     2     1     3     6
 -0.0000000003     2     1     3     7
 0.0259258420     2     1     3    10
 0.0000000002     2     1     4     4
 0.1194269087     2     1     4     8
 -0.0289328354     2     1     4     9
 0.0000000001     2     1     5     5
 -0.0289328354     2     1     5     8
 -0.1194269087     2     1     5     9
 -0.1003547809     2     1     6     3
 0.0000000002     2     1     6     6
 0.2272329531     2     1     6     7
 0.0000000016     2     1     6    10
 -0.0270312246     2     1     7     2
 -0.0000000003     2     1     7     3
 0.2260085417     2     1     7     6
 -0.0342436893     2     1     7    10
 0.1201194353     2     1     8     4
 -0.0291006096     2     1     8     5
 -0.0000000001     2     1     8     9
 -0.0291006096     2     1     9     4
 -0.1201194353     2     1     9     5
 -0.0000000001     2     1     9     8
 -0.0000000002     2     1     9     9
 0.0256896024     2     1    10     3
 0.0000000017     2     1    10     6
 -0.0346113723     2     1    10     7
 0.5885533929     2     2     1     1
 0.0214812887     2     2     1     3
 0.0270312246     2     2     1     7
 0.0214812887     2     2     3     1
 0.9142242060     2     2     3     3
 0.1374939177     2     2     3     7
 0.7515028870     2     2     4     4
 -0.0000000002     2     2     4     8
 0.0000000001     2     2     4     9
 0.7515028872     2     2     5     5
 0.0000000001     2     2     5     8
 0.0000000003     2     2     5     9
 0.6505997996     2     2     6     6
 0.0000000005     2     2     6     7
 -0.0857367374     2     2     6    10
 0.0270312246     2     2     7     1
 0.1374939177     2     2     7     3
 0.0000000005     2     2     7     6
 0.7054495741     2     2     7     7
 0.0000000014     2     2     7    10
 -0.0000000002     2     2     8     4
 0.0000000001     2     2     8     5
 0.4799236656     2     2     8     8
 -0.0000000001     2     2     8     9
 0.0000000001     2     2     9     4
 0.0000000003     2     2     9     5
 -0.0000000001     2     2     9     8
 0.4799236654     2     2     9     9
 -0.0857367374     2     2    10     6
 0.0000000014     2     2    10     7
 0.2584745156     2     2    10    10
 -0.0214812887     2     3     1     2
 -0.0009778398     2     3     1     6
 -0.0000000001     2     3     1     7
 0.0002677921     2     3     1    10
 0.0000000001     2     3     3     1
 -0.9142242060     2     3     3     2
 -0.0199384923     2     3     3     6
 0.0000000002     2     3     3     7
 0.0061932899     2     3     3    10
 -0.0000000001     2     3     4     4
 -0.0199673825     2     3     4     8
 0.0048373770     2     3     4     9
 0.0000000003     2     3     5     5
 0.0048373771     2     3     5     8
 0.0199673827     2     3     5     9
 0.1003547809     2     3     6     1
 -0.0000000004     2     3     6     6
 -0.0237487166     2     3     6     7
 -0.0000000004     2     3     6    10
 0.0000000003     2     3     7     1
 -0.1374939177     2     3     7     2
 -0.0314251748     2     3     7     6
 -0.0000000001     2     3     7     7
 0.0072470275     2     3     7    10
 -0.0125851586     2     3     8     4
 0.0030489304     2     3     8     5
 0.0000000015     2     3     8     8
 -0.0000000013     2     3     8     9
 0.0030489303     2     3     9     4
 0.0125851587     2     3     9     5
 -0.0000000013     2     3     9     8
 -0.0000000022     2     3     9     9
 -0.0256896024     2     3    10     1
 -0.0000000006     2     3    10     6
 0.0039151873     2     3    10     7
 -0.0000000170     2     3    10    10
 -0.0006557610     2     4     1     8
 0.0001588672     2     4     1     9
 -0.0057464122     2     4     3     8
 0.0013921486     2     4     3     9
 -0.0000000002     2     4     4     1
 -0.7515028870     2     4     4     2
 0.0000000001     2     4     4     3
 -0.0222910046     2     4     4     6
 0.0000000002     2     4     4     7
 0.0065841897     2     4     4    10
 -0.0000000001     2     4     6     8
 -0.0015746084     2     4     7     8
 0.0003814709     2     4     7     9
 -0.1201194353     2     4     8     1
 0.0000000002     2     4     8     2
 0.0125851586     2     4     8     3
 0.0000000001     2     4     8     6
 -0.0004602762     2     4     8     7
 0.0000000038     2     4     8    10
 0.0291006096     2     4     9     1
 -0.0000000001     2     4     9     2
 -0.0030489303     2     4     9     3
 0.0001115084     2     4     9     7
 -0.0000000009     2     4     9    10
 0.0000000039     2     4    10     8
 -0.0000000009     2     4    10     9
 0.0001588673     2     5     1     8
 0.0006557610     2     5     1     9
 0.0013921486     2     5     3     8
 0.0057464122     2     5     3     9
 -0.0000000001     2     5     5     1
 -0.7515028872     2     5     5     2
 -0.0000000003     2     5     5     3
 -0.0222910047     2     5     5     6
 0.0000000002     2     5     5     7
 0.0065841898     2     5     5    10
 0.0000000001     2     5     6     9
 0.0003814709     2     5     7     8
 0.0015746084     2     5     7     9
 0.0291006096     2     5     8     1
 -0.0000000001     2     5     8     2
 -0.0030489304     2     5     8     3
 0.0001115084     2     5     8     7
 -0.0000000009     2     5     8    10
 0.1201194353     2     5     9     1
 -0.0000000003     2     5     9     2
 -0.0125851587     2     5     9     3
 0.0000000001     2     5     9     6
 0.0004602762     2     5     9     7
 -0.0000000038     2     5     9    10
 -0.0000000009     2     5    10     8
 -0.0000000039     2     5    10     9
 0.0130442299     2     6     1     1
 0.0009778398     2     6     1     3
 0.0012196440     2     6     1     7
 0.1013372594     2     6     3     1
 0.0199384923     2     6     3     3
 0.0076545172     2     6     3     7
 0.0000000003     2     6     3    10
 0.0222910046     2     6     4     4
 -0.0000000001     2     6     4     8
 0.0222910047     2     6     5     5
 -0.0000000002     2     6     6     1
 -0.6505997996     2     6     6     2
 0.0000000004     2     6     6     3
 -0.0000000001     2     6     6     7
 -0.0000372329     2     6     6    10
 -0.2260085417     2     6     7     1
 -0.0000000005     2     6     7     2
 0.0314251748     2     6     7     3
 0.0235937251     2     6     7     7
 0.0000000009     2     6     7    10
 -0.0000000001     2     6     8     4
 0.0096599992     2     6     8     8
 0.0000000006     2     6     8     9
 -0.0000000001     2     6     9     5
 0.0000000006     2     6     9     8
 0.0096600007     2     6     9     9
 -0.0000000017     2     6    10     1
 0.0857367374     2     6    10     2
 0.0000000006     2     6    10     3
 0.0000000011     2     6    10     7
 -0.0002407354     2     6    10    10
 -0.0270312246     2     7     1     2
 0.0000000001     2     7     1     3
 -0.0012196440     2     7     1     6
 0.0003570569     2     7     1    10
 0.0000000003     2     7     3     1
 -0.1374939177     2     7     3     2
 -0.0000000002     2     7     3     3
 -0.0076545172     2     7     3     6
 0.0028228082     2     7     3    10
 -0.0000000002     2     7     4     4
 -0.0015558455     2     7     4     8
 0.0003769253     2     7     4     9
 -0.0000000002     2     7     5     5
 0.0003769253     2     7     5     8
 0.0015558455     2     7     5     9
 -0.2272329531     2     7     6     1
 -0.0000000005     2     7     6     2
 0.0237487166     2     7     6     3
 0.0000000001     2     7     6     6
 -0.0000000003     2     7     6    10
 -0.7054495741     2     7     7     2
 0.0000000001     2     7     7     3
 -0.0235937251     2     7     7     6
 0.0050585397     2     7     7    10
 0.0004602762     2     7     8     4
 -0.0001115084     2     7     8     5
 -0.0000000008     2     7     8     8
 0.0000000001     2     7     8     9
 -0.0001115084     2     7     9     4
 -0.0004602762     2     7     9     5
 0.0000000001     2     7     9     8
 -0.0000000007     2     7     9     9
 0.0346113723     2     7    10     1
 -0.0000000014     2     7    10     2
 -0.0039151873     2     7    10     3
 -0.0000000011     2     7    10     6
 -0.0000000248     2     7    10    10
 0.0006557610     2     8     1     4
 -0.0001588673     2     8     1     5
 0.0057464122     2     8     3     4
 -0.0013921486     2     8     3     5
 -0.1194269087     2     8     4     1
 0.0000000002     2     8     4     2
 0.0199673825     2     8     4     3
 0.0000000001     2     8     4     6
 0.0015558455     2     8     4     7
 0.0000000001     2     8     4    10
 0.0289328354     2     8     5     1
 -0.0000000001     2     8     5     2
 -0.0048373771     2     8     5     3
 -0.0003769253     2     8     5     7
 -0.0000000001     2     8     5    10
 0.0000000001     2     8     6     4
 0.0015746084     2     8     7     4
 -0.0003814709     2     8     7     5
 -0.4799236656     2     8     8     2
 -0.0000000015     2     8     8     3
 -0.0096599992     2     8     8     6
 0.0000000008     2     8     8     7
 0.0021297183     2     8     8    10
 0.0000000001     2     8     9     1
 0.0000000001     2     8     9     2
 0.0000000013     2     8     9     3
 -0.0000000006     2     8     9     6
 -0.0000000001     2     8     9     7
 0.0000000002     2     8     9    10
 -0.0000000039     2     8    10     4
 0.0000000009     2     8    10     5
 -0.0001588672     2     9     1     4
 -0.0006557610     2     9     1     5
 -0.0013921486     2     9     3     4
 -0.0057464122     2     9     3     5
 0.0289328354     2     9     4     1
 -0.0000000001     2     9     4     2
 -0.0048373770     2     9     4     3
 -0.0003769253     2     9     4     7
 0.1194269087     2     9     5     1
 -0.0000000003     2     9     5     2
 -0.0199673827     2     9     5     3
 -0.0015558455     2     9     5     7
 -0.0000000002     2     9     5    10
 -0.0000000001     2     9     6     5
 -0.0003814709     2     9     7     4
 -0.0015746084     2     9     7     5
 0.0000000001     2     9     8     1
 0.0000000001     2     9     8     2
 0.0000000013     2     9     8     3
 -0.0000000006     2     9     8     6
 -0.0000000001     2     9     8     7
 0.0000000002     2     9     8    10
 0.0000000002     2     9     9     1
 -0.4799236654     2     9     9     2
 0.0000000022     2     9     9     3
 -0.0096600007     2     9     9     6
 0.0000000007     2     9     9     7
 0.0021297189     2     9     9    10
 0.0000000009     2     9    10     4
 0.0000000039     2     9    10     5
 -0.0037548129     2    10     1     1
 -0.0002677921     2    10     1     3
 -0.0003570569     2    10     1     7
 -0.0259258420     2    10     3     1
 -0.0061932899     2    10     3     3
 -0.0000000003     2    10     3     6
 -0.0028228082     2    10     3     7
 -0.0065841897     2    10     4     4
 -0.0000000001     2    10     4     8
 -0.0065841898     2    10     5     5
 0.0000000001     2    10     5     8
 0.0000000002     2    10     5     9
 -0.0000000016     2    10     6     1
 0.0857367374     2    10     6     2
 0.0000000004     2    10     6     3
 0.0000372329     2    10     6     6
 0.0000000003     2    10     6     7
 0.0342436893     2    10     7     1
 -0.0000000014     2    10     7     2
 -0.0072470275     2    10     7     3
 -0.0000000009     2    10     7     6
 -0.0050585397     2    10     7     7
 -0.0000000038     2    10     8     4
 0.0000000009     2    10     8     5
 -0.0021297183     2    10     8     8
 -0.0000000002     2    10     8     9
 0.0000000009     2    10     9     4
 0.0000000038     2    10     9     5
 -0.0000000002     2    10     9     8
 -0.0021297189     2    10     9     9
 -0.2584745156     2    10    10     2
 0.0000000170     2    10    10     3
 0.0002407354     2    10    10     6
 0.0000000248     2    10    10     7
 -0.9137790057     3     1     1     3
 0.0000000001     3     1     1     6
 -0.1360467086     3     1     1     7
 0.0000000001     3     1     1    10
 0.0214812887     3     1     2     2
 0.0000000001     3     1     2     3
 0.1013372594     3     1     2     6
 0.0000000003     3     1     2     7
 -0.0259258420     3     1     2    10
 -0.0199193316     3     1     4     4
 0.0000000001     3     1     4     8
 -0.0000000001     3     1     4     9
 -0.0199193319     3     1     5     5
 0.0000000001     3     1     5     9
 0.0009778398     3     1     6     2
 -0.0000000002     3     1     6     3
 -0.0127249899     3     1     6     6
 0.0000000004     3     1     6     7
 0.0022688123     3     1     6    10
 0.0000000001     3     1     7     2
 -0.0302837819     3     1     7     3
 0.0000000003     3     1     7     6
 -0.0274921539     3     1     7     7
 0.0000000004     3     1     7    10
 0.0000000001     3     1     8     4
 -0.0075576911     3     1     8     8
 -0.0000000003     3     1     8     9
 -0.0000000001     3     1     9     4
 -0.0000000003     3     1     9     8
 -0.0075576921     3     1     9     9
 -0.0002677921     3     1    10     2
 -0.0000000001     3     1    10     3
 0.0027465982     3     1    10     6
 0.0000000004     3     1    10     7
 -0.0016107218     3     1    10    10
 0.0000000001     3     2     1     3
 0.1003547809     3     2     1     6
 0.0000000003     3     2     1     7
 -0.0256896024     3     2     1    10
 -0.0214812887     3     2     2     1
 -0.9142242060     3     2     2     3
 -0.1374939177     3     2     2     7
 -0.0000000001     3     2     4     4
 -0.0125851586     3     2     4     8
 0.0030489303     3     2     4     9
 0.0000000003     3     2     5     5
 0.0030489304     3     2     5     8
 0.0125851587     3     2     5     9
 -0.0009778398     3     2     6     1
 -0.0199384923     3     2     6     3
 -0.0000000004     3     2     6     6
 -0.0314251748     3     2     6     7
 -0.0000000006     3     2     6    10
 -0.0000000001     3     2     7     1
 0.0000000002     3     2     7     3
 -0.0237487166     3     2     7     6
 -0.0000000001     3     2     7     7
 0.0039151873     3     2     7    10
 -0.0199673825     3     2     8     4
 0.0048373771     3     2     8     5
 0.0000000015     3     2     8     8
 -0.0000000013     3     2     8     9
 0.0048373770     3     2     9     4
 0.0199673827     3     2     9     5
 -0.0000000013     3     2     9     8
 -0.0000000022     3     2     9     9
 0.0002677921     3     2    10     1
 0.0061932899     3     2    10     3
 -0.0000000004     3     2    10     6
 0.0072470275     3     2    10     7
 -0.0000000170     3     2    10    10
 0.9137790057     3     3     1     1
 -0.0000000001     3     3     1     2
 0.0000000002     3     3     1     6
 0.0302837819     3     3     1     7
 0.0000000001     3     3     1    10
 -0.0000000001     3     3     2     1
 0.9142242060     3     3     2     2
 0.0199384923     3     3     2     6
 -0.0000000002     3     3     2     7
 -0.0061932899     3     3     2    10
 0.5981048649     3     3     4     4
 0.0000000001     3     3     4     9
 0.5981048644     3     3     5     5
 -0.0000000001     3     3     5     8
 -0.0000000001     3     3     5     9
 0.0000000002     3     3     6     1
 0.0199384923     3     3     6     2
 0.5110072646     3     3     6     6
 0.0000000008     3     3     6     7
 -0.0568935385     3     3     6    10
 0.0302837819     3     3     7     1
 -0.0000000002     3     3     7     2
 0.0000000008     3     3     7     6
 0.5385543153     3     3     7     7
 0.0000000049     3     3     7    10
 -0.0000000001     3     3     8     5
 0.4273706260     3     3     8     8
 0.0000000023     3     3     8     9
 0.0000000001     3     3     9     4
 -0.0000000001     3     3     9     5
 0.0000000023     3     3     9     8
 0.4273706325     3     3     9     9
 0.0000000001     3     3    10     1
 -0.0061932899     3     3    10     2
 -0.0568935385     3     3    10     6
 0.0000000049     3     3    10     7
 0.2415891181     3     3    10    10
 0.0057464122     3     4     2     8
 -0.0013921486     3     4     2     9
 0.0199193316     3     4     4     1
 0.0000000001     3     4     4     2
 -0.5981048649     3     4     4     3
 -0.0000000006     3     4     4     6
 -0.0879519195     3     4     4     7
 0.0000000001     3     4     4    10
 -0.0000000001     3     4     5     7
 0.0000000001     3     4     5    10
 -0.0252862454     3     4     6     8
 0.0061259458     3     4     6     9
 -0.0000000001     3     4     8     1
 0.0199673825     3     4     8     2
 -0.0033224240     3     4     8     6
 -0.0000000002     3     4     8     7
 -0.0056593877     3     4     8    10
 0.0000000001     3     4     9     1
 -0.0048373770     3     4     9     2
 -0.0000000001     3     4     9     3
 0.0008049036     3     4     9     6
 0.0013710656     3     4     9    10
 -0.0001645034     3     4    10     8
 0.0000398533     3     4    10     9
 -0.0013921486     3     5     2     8
 -0.0057464122     3     5     2     9
 -0.0000000001     3     5     4     7
 0.0000000001     3     5     4    10
 0.0199193319     3     5     5     1
 -0.0000000003     3     5     5     2
 -0.5981048644     3     5     5     3
 -0.0000000002     3     5     5     6
 -0.0879519186     3     5     5     7
 -0.0000000006     3     5     5    10
 0.0061259458     3     5     6     8
 0.0252862453     3     5     6     9
 -0.0048373771     3     5     8     2
 0.0000000001     3     5     8     3
 0.0008049036     3     5     8     6
 0.0013710656     3     5     8    10
 -0.0199673827     3     5     9     2
 0.0000000001     3     5     9     3
 0.0033224241     3     5     9     6
 0.0000000002     3     5     9     7
 0.0056593875     3     5     9    10
 0.0000398532     3     5    10     8
 0.0001645034     3     5    10     9
 -0.0000000001     3     6     1     1
 -0.1003547809     3     6     1     2
 -0.0000000002     3     6     1     3
 0.0000000001     3     6     1     7
 -0.0002089446     3     6     1    10
 -0.1013372594     3     6     2     1
 -0.0199384923     3     6     2     3
 -0.0076545172     3     6     2     7
 -0.0000000003     3     6     2    10
 0.0000000006     3     6     4     4
 -0.0209727772     3     6     4     8
 0.0050809480     3     6     4     9