&FCI NORB= 10,NELEC= 14,MS2=0,
 ORBSYM=1,1,1,1,1,1,1,1,1,1
 ISYM=1,
&END
 0.2939989889     1     1     2     2
 -0.0000000055     1     1     2     3
 -0.0011738795     1     1     2     4
 -0.0000000298     1     1     2     5
 0.0052214808     1     1     2    10
 -0.0000000055     1     1     3     2
 0.6070342319     1     1     3     3
 0.0000029714     1     1     3     4
 0.0295577146     1     1     3     5
 0.0000009889     1     1     3    10
 -0.0011738795     1     1     4     2
 0.0000029714     1     1     4     3
 0.5995372685     1     1     4     4
 -0.0000014826     1     1     4     5
 0.0560611814     1     1     4    10
 -0.0000000298     1     1     5     2
 0.0295577146     1     1     5     3
 -0.0000014826     1     1     5     4
 0.6055690295     1     1     5     5
 0.0000023462     1     1     5    10
 0.5843362254     1     1     6     6
 -0.0000000001     1     1     6     7
 -0.0000014581     1     1     6     8
 0.0000022775     1     1     6     9
 -0.0000000001     1     1     7     6
 0.5843362243     1     1     7     7
 0.0000022768     1     1     7     8
 0.0000014576     1     1     7     9
 -0.0000014581     1     1     8     6
 0.0000022768     1     1     8     7
 0.5724204835     1     1     8     8
 -0.0000000001     1     1     8     9
 0.0000022775     1     1     9     6
 0.0000014576     1     1     9     7
 -0.0000000001     1     1     9     8
 0.5724204836     1     1     9     9
 0.0052214808     1     1    10     2
 0.0000009889     1     1    10     3
 0.0560611814     1     1    10     4
 0.0000023462     1     1    10     5
 0.5860935793     1     1    10    10
 -0.2939989889     1     2     2     1
 0.0010830043     1     2     2     3
 -0.0000000060     1     2     2     4
 0.0058939067     1     2     2     5
 0.0000000264     1     2     2    10
 0.0000000055     1     2     3     1
 -0.0000000030     1     2     3     3
 -0.2930145010     1     2     3     4
 -0.0000000002     1     2     3     5
 -0.0974942789     1     2     3    10
 0.0011738795     1     2     4     1
 -0.2930335044     1     2     4     3
 0.0000000026     1     2     4     4
 0.1461994387     1     2     4     5
 0.0000000003     1     2     4    10
 0.0000000298     1     2     5     1
 -0.0000000002     1     2     5     3
 0.1462530223     1     2     5     4
 -0.0000000017     1     2     5     5
 -0.2314641770     1     2     5    10
 -0.0000000023     1     2     6     6
 0.0000000001     1     2     6     7
 0.1437863612     1     2     6     8
 -0.2245938666     1     2     6     9
 0.0000000001     1     2     7     6
 -0.0000000013     1     2     7     7
 -0.2245938668     1     2     7     8
 -0.1437863614     1     2     7     9
 0.1437283235     1     2     8     6
 -0.2245032119     1     2     8     7
 0.0000000011     1     2     8     8
 -0.2245032117     1     2     9     6
 -0.1437283236     1     2     9     7
 0.0000000011     1     2     9     9
 -0.0052214808     1     2    10     1
 -0.0974506918     1     2    10     3
 0.0000000003     1     2    10     4
 -0.2312612630     1     2    10     5
 0.0000000016     1     2    10    10
 0.0000000055     1     3     2     1
 -0.0010830043     1     3     2     2
 0.0000182914     1     3     2     4
 -0.0000427663     1     3     2    10
 -0.6070342319     1     3     3     1
 0.0000000030     1     3     3     2
 -0.0000000063     1     3     3     4
 0.0065356219     1     3     3     5
 0.0000000327     1     3     3    10
 -0.0000029714     1     3     4     1
 0.2930335044     1     3     4     2
 0.0016894093     1     3     4     4
 -0.0000000334     1     3     4     5
 -0.0056204569     1     3     4    10
 -0.0295577146     1     3     5     1
 0.0000000002     1     3     5     2
 -0.0000000355     1     3     5     4
 0.0209617099     1     3     5     5
 0.0000000957     1     3     5    10
 0.0190690265     1     3     6     6
 -0.0000000512     1     3     6     8
 0.0000000800     1     3     6     9
 0.0190690264     1     3     7     7
 0.0000000799     1     3     7     8
 0.0000000512     1     3     7     9
 -0.0000000436     1     3     8     6
 0.0000000680     1     3     8     7
 0.0170979510     1     3     8     8
 0.0000000680     1     3     9     6
 0.0000000435     1     3     9     7
 0.0170979510     1     3     9     9
 -0.0000009889     1     3    10     1
 0.0974506918     1     3    10     2
 -0.0049076605     1     3    10     4
 0.0000000749     1     3    10     5
 0.0149071814     1     3    10    10
 0.0011738795     1     4     2     1
 0.0000000060     1     4     2     2
 -0.0000182914     1     4     2     3
 -0.0000525004     1     4     2     5
 0.0000000001     1     4     2    10
 -0.0000029714     1     4     3     1
 0.2930145010     1     4     3     2
 0.0000000063     1     4     3     3
 0.0000000023     1     4     3     5
 -0.0003314307     1     4     3    10
 -0.5995372685     1     4     4     1
 -0.0000000026     1     4     4     2
 -0.0016894093     1     4     4     3
 -0.0018511223     1     4     4     5
 -0.0000000113     1     4     4    10
 0.0000014826     1     4     5     1
 -0.1462530223     1     4     5     2
 0.0000000355     1     4     5     3
 0.0000001011     1     4     5     5
 0.0186777982     1     4     5    10
 0.0000000999     1     4     6     6
 -0.0093023210     1     4     6     8
 0.0145301977     1     4     6     9
 0.0000000997     1     4     7     7
 0.0145301978     1     4     7     8
 0.0093023211     1     4     7     9
 -0.0089621586     1     4     8     6
 0.0139988650     1     4     8     7
 0.0000000979     1     4     8     8
 0.0139988650     1     4     9     6
 0.0089621586     1     4     9     7
 0.0000000979     1     4     9     9
 -0.0560611814     1     4    10     1
 -0.0000000003     1     4    10     2
 0.0049076605     1     4    10     3
 0.0152115237     1     4    10     5
 0.0000001010     1     4    10    10
 0.0000000298     1     5     2     1
 -0.0058939067     1     5     2     2
 0.0000525004     1     5     2     4
 -0.0002081956     1     5     2    10
 -0.0295577146     1     5     3     1
 0.0000000002     1     5     3     2
 -0.0065356219     1     5     3     3
 -0.0000000023     1     5     3     4
 0.0000000158     1     5     3    10
 0.0000014826     1     5     4     1
 -0.1461994387     1     5     4     2
 0.0000000334     1     5     4     3
 0.0018511223     1     5     4     4
 0.0021559025     1     5     4    10
 -0.6055690295     1     5     5     1
 0.0000000017     1     5     5     2
 -0.0209617099     1     5     5     3
 -0.0000001011     1     5     5     4
 -0.0000000158     1     5     5    10
 -0.0065045351     1     5     6     6
 0.0000000017     1     5     6     8
 -0.0000000026     1     5     6     9
 -0.0065045351     1     5     7     7
 -0.0000000025     1     5     7     8
 -0.0000000016     1     5     7     9
 0.0000000037     1     5     8     6
 -0.0000000057     1     5     8     7
 -0.0053672318     1     5     8     8
 -0.0000000001     1     5     8     9
 -0.0000000058     1     5     9     6
 -0.0000000037     1     5     9     7
 -0.0000000001     1     5     9     8
 -0.0053672318     1     5     9     9
 -0.0000023462     1     5    10     1
 0.2312612630     1     5    10     2
 -0.0000000749     1     5    10     3
 -0.0152115237     1     5    10     4
 -0.0122351704     1     5    10    10
 0.0000562325     1     6     2     8
 -0.0000878351     1     6     2     9
 -0.0000000051     1     6     3     8
 0.0000000079     1     6     3     9
 0.0002723887     1     6     4     8
 -0.0004254703     1     6     4     9
 -0.0000000025     1     6     5     8
 0.0000000039     1     6     5     9
 -0.5843362254     1     6     6     1
 0.0000000023     1     6     6     2
 -0.0190690265     1     6     6     3
 -0.0000000999     1     6     6     4
 0.0065045351     1     6     6     5
 -0.0000000166     1     6     6    10
 0.0000000001     1     6     7     1
 -0.0000000001     1     6     7     2
 0.0000014581     1     6     8     1
 -0.1437283235     1     6     8     2
 0.0000000436     1     6     8     3
 0.0089621586     1     6     8     4
 -0.0000000037     1     6     8     5
 0.0044867004     1     6     8    10
 -0.0000022775     1     6     9     1
 0.2245032117     1     6     9     2
 -0.0000000680     1     6     9     3
 -0.0139988650     1     6     9     4
 0.0000000058     1     6     9     5
 -0.0070082125     1     6     9    10
 0.0000865115     1     6    10     8
 -0.0001351307     1     6    10     9
 -0.0000878351     1     7     2     8
 -0.0000562325     1     7     2     9
 0.0000000079     1     7     3     8
 0.0000000051     1     7     3     9
 -0.0004254703     1     7     4     8
 -0.0002723887     1     7     4     9
 0.0000000040     1     7     5     8
 0.0000000026     1     7     5     9
 0.0000000001     1     7     6     1
 -0.0000000001     1     7     6     2
 -0.5843362243     1     7     7     1
 0.0000000013     1     7     7     2
 -0.0190690264     1     7     7     3
 -0.0000000997     1     7     7     4
 0.0065045351     1     7     7     5
 -0.0000000164     1     7     7    10
 -0.0000022768     1     7     8     1
 0.2245032119     1     7     8     2
 -0.0000000680     1     7     8     3
 -0.0139988650     1     7     8     4
 0.0000000057     1     7     8     5
 -0.0070082125     1     7     8    10
 -0.0000014576     1     7     9     1
 0.1437283236     1     7     9     2
 -0.0000000435     1     7     9     3
 -0.0089621586     1     7     9     4
 0.0000000037     1     7     9     5
 -0.0044867004     1     7     9    10
 -0.0001351306     1     7    10     8
 -0.0000865115     1     7    10     9
 -0.0000562325     1     8     2     6
 0.0000878351     1     8     2     7
 0.0000000051     1     8     3     6
 -0.0000000079     1     8     3     7
 -0.0002723887     1     8     4     6
 0.0004254703     1     8     4     7
 0.0000000025     1     8     5     6
 -0.0000000040     1     8     5     7
 0.0000014581     1     8     6     1
 -0.1437863612     1     8     6     2
 0.0000000512     1     8     6     3
 0.0093023210     1     8     6     4
 -0.0000000017     1     8     6     5
 0.0045492885     1     8     6    10
 -0.0000022768     1     8     7     1
 0.2245938668     1     8     7     2
 -0.0000000799     1     8     7     3
 -0.0145301978     1     8     7     4
 0.0000000025     1     8     7     5
 -0.0071059750     1     8     7    10
 -0.5724204835     1     8     8     1
 -0.0000000011     1     8     8     2
 -0.0170979510     1     8     8     3
 -0.0000000979     1     8     8     4
 0.0053672318     1     8     8     5
 -0.0000000264     1     8     8    10
 0.0000000001     1     8     9     1
 0.0000000001     1     8     9     5
 0.0000000001     1     8     9    10
 -0.0000865115     1     8    10     6
 0.0001351306     1     8    10     7
 0.0000878351     1     9     2     6
 0.0000562325     1     9     2     7
 -0.0000000079     1     9     3     6
 -0.0000000051     1     9     3     7
 0.0004254703     1     9     4     6
 0.0002723887     1     9     4     7
 -0.0000000039     1     9     5     6
 -0.0000000026     1     9     5     7
 -0.0000022775     1     9     6     1
 0.2245938666     1     9     6     2
 -0.0000000800     1     9     6     3
 -0.0145301977     1     9     6     4
 0.0000000026     1     9     6     5
 -0.0071059750     1     9     6    10
 -0.0000014576     1     9     7     1
 0.1437863614     1     9     7     2
 -0.0000000512     1     9     7     3
 -0.0093023211     1     9     7     4
 0.0000000016     1     9     7     5
 -0.0045492885     1     9     7    10
 0.0000000001     1     9     8     1
 0.0000000001     1     9     8     5
 0.0000000001     1     9     8    10
 -0.5724204836     1     9     9     1
 -0.0000000011     1     9     9     2
 -0.0170979510     1     9     9     3
 -0.0000000979     1     9     9     4
 0.0053672318     1     9     9     5
 -0.0000000263     1     9     9    10
 0.0001351307     1     9    10     6
 0.0000865115     1     9    10     7
 -0.0052214808     1    10     2     1
 -0.0000000264     1    10     2     2
 0.0000427663     1    10     2     3
 -0.0000000001     1    10     2     4
 0.0002081956     1    10     2     5
 -0.0000009889     1    10     3     1
 0.0974942789     1    10     3     2
 -0.0000000327     1    10     3     3
 0.0003314307     1    10     3     4
 -0.0000000158     1    10     3     5
 -0.0560611814     1    10     4     1
 -0.0000000003     1    10     4     2
 0.0056204569     1    10     4     3
 0.0000000113     1    10     4     4
 -0.0021559025     1    10     4     5
 -0.0000023462     1    10     5     1
 0.2314641770     1    10     5     2
 -0.0000000957     1    10     5     3
 -0.0186777982     1    10     5     4
 0.0000000158     1    10     5     5
 0.0000000166     1    10     6     6
 -0.0045492885     1    10     6     8
 0.0071059750     1    10     6     9
 0.0000000164     1    10     7     7
 0.0071059750     1    10     7     8
 0.0045492885     1    10     7     9
 -0.0044867004     1    10     8     6
 0.0070082125     1    10     8     7
 0.0000000264     1    10     8     8
 -0.0000000001     1    10     8     9
 0.0070082125     1    10     9     6
 0.0044867004     1    10     9     7
 -0.0000000001     1    10     9     8
 0.0000000263     1    10     9     9
 -0.5860935793     1    10    10     1
 -0.0000000016     1    10    10     2
 -0.0149071814     1    10    10     3
 -0.0000001010     1    10    10     4
 0.0122351704     1    10    10     5
 -0.2939989889     2     1     1     2
 0.0000000055     2     1     1     3
 0.0011738795     2     1     1     4
 0.0000000298     2     1     1     5
 -0.0052214808     2     1     1    10
 0.0010830043     2     1     3     2
 -0.0000000030     2     1     3     3
 -0.2930335044     2     1     3     4
 -0.0000000002     2     1     3     5
 -0.0974506918     2     1     3    10
 -0.0000000060     2     1     4     2
 -0.2930145010     2     1     4     3
 0.0000000026     2     1     4     4
 0.1462530223     2     1     4     5
 0.0000000003     2     1     4    10
 0.0058939067     2     1     5     2
 -0.0000000002     2     1     5     3
 0.1461994387     2     1     5     4
 -0.0000000017     2     1     5     5
 -0.2312612630     2     1     5    10
 -0.0000000023     2     1     6     6
 0.0000000001     2     1     6     7
 0.1437283235     2     1     6     8
 -0.2245032117     2     1     6     9
 0.0000000001     2     1     7     6
 -0.0000000013     2     1     7     7
 -0.2245032119     2     1     7     8
 -0.1437283236     2     1     7     9
 0.1437863612     2     1     8     6
 -0.2245938668     2     1     8     7
 0.0000000011     2     1     8     8
 -0.2245938666     2     1     9     6
 -0.1437863614     2     1     9     7
 0.0000000011     2     1     9     9
 0.0000000264     2     1    10     2
 -0.0974942789     2     1    10     3
 0.0000000003     2     1    10     4
 -0.2314641770     2     1    10     5
 0.0000000016     2     1    10    10
 0.2939989889     2     2     1     1
 -0.0010830043     2     2     1     3
 0.0000000060     2     2     1     4
 -0.0058939067     2     2     1     5
 -0.0000000264     2     2     1    10
 -0.0010830043     2     2     3     1
 0.6070200839     2     2     3     3
 -0.0000029714     2     2     3     4
 0.0295793428     2     2     3     5
 -0.0000009880     2     2     3    10
 0.0000000060     2     2     4     1
 -0.0000029714     2     2     4     3
 0.5995388446     2     2     4     4
 0.0000014831     2     2     4     5
 0.0560851040     2     2     4    10
 -0.0058939067     2     2     5     1
 0.0295793428     2     2     5     3
 0.0000014831     2     2     5     4
 0.6058055440     2     2     5     5
 -0.0000023461     2     2     5    10
 0.5844526384     2     2     6     6
 -0.0000000001     2     2     6     7
 0.0000014574     2     2     6     8
 -0.0000022765     2     2     6     9
 -0.0000000001     2     2     7     6
 0.5844526373     2     2     7     7
 -0.0000022773     2     2     7     8
 -0.0000014580     2     2     7     9
 0.0000014574     2     2     8     6
 -0.0000022773     2     2     8     7
 0.5723406927     2     2     8     8
 -0.0000000001     2     2     8     9
 -0.0000022765     2     2     9     6
 -0.0000014580     2     2     9     7
 -0.0000000001     2     2     9     8
 0.5723406928     2     2     9     9
 -0.0000000264     2     2    10     1
 -0.0000009880     2     2    10     3
 0.0560851040     2     2    10     4
 -0.0000023461     2     2    10     5
 0.5859056471     2     2    10    10
 -0.0000000055     2     3     1     1
 0.0010830043     2     3     1     2
 -0.0000182914     2     3     1     4
 0.0000427663     2     3     1    10
 0.0000000030     2     3     3     1
 -0.6070200839     2     3     3     2
 0.0012463427     2     3     3     4
 0.0000000331     2     3     3     5
 -0.0064568458     2     3     3    10
 0.2930145010     2     3     4     1
 0.0000029714     2     3     4     2
 0.0000000086     2     3     4     4
 0.0065370929     2     3     4     5
 -0.0000000284     2     3     4    10
 0.0000000002     2     3     5     1
 -0.0295793428     2     3     5     2
 0.0069573703     2     3     5     4
 0.0000001059     2     3     5     5
 -0.0188439757     2     3     5    10
 0.0000000965     2     3     6     6
 0.0100865395     2     3     6     8
 -0.0157551446     2     3     6     9
 0.0000000967     2     3     7     7
 -0.0157551445     2     3     7     8
 -0.0100865396     2     3     7     9
 0.0085761525     2     3     8     6
 -0.0133959246     2     3     8     7
 0.0000000866     2     3     8     8
 -0.0133959247     2     3     9     6
 -0.0085761526     2     3     9     7
 0.0000000866     2     3     9     9
 0.0974942789     2     3    10     1
 0.0000009880     2     3    10     2
 -0.0000000249     2     3    10     4
 -0.0147216798     2     3    10     5
 0.0000000741     2     3    10    10
 -0.0011738795     2     4     1     1
 -0.0000000060     2     4     1     2
 0.0000182914     2     4     1     3
 0.0000525004     2     4     1     5
 -0.0000000001     2     4     1    10
 0.2930335044     2     4     3     1
 0.0000029714     2     4     3     2
 -0.0012463427     2     4     3     3
 -0.0004533710     2     4     3     5
 -0.0000000016     2     4     3    10
 -0.0000000026     2     4     4     1
 -0.5995388446     2     4     4     2
 -0.0000000086     2     4     4     3
 -0.0000000094     2     4     4     5
 0.0022185100     2     4     4    10
 -0.1461994387     2     4     5     1
 -0.0000014831     2     4     5     2
 -0.0069573703     2     4     5     3
 -0.0198970163     2     4     5     5
 0.0000000946     2     4     5    10
 -0.0197048201     2     4     6     6
 -0.0000000472     2     4     6     8
 0.0000000737     2     4     6     9
 -0.0197048200     2     4     7     7
 0.0000000738     2     4     7     8
 0.0000000472     2     4     7     9
 -0.0000000455     2     4     8     6
 0.0000000711     2     4     8     7
 -0.0193267638     2     4     8     8
 0.0000000710     2     4     9     6
 0.0000000455     2     4     9     7
 -0.0193267638     2     4     9     9
 -0.0000000003     2     4    10     1
 -0.0560851040     2     4    10     2
 0.0000000249     2     4    10     3
 0.0000000771     2     4    10     5
 -0.0196042512     2     4    10    10
 -0.0000000298     2     5     1     1
 0.0058939067     2     5     1     2
 -0.0000525004     2     5     1     4
 0.0002081956     2     5     1    10
 0.0000000002     2     5     3     1
 -0.0295793428     2     5     3     2
 -0.0000000331     2     5     3     3
 0.0004533710     2     5     3     4
 -0.0031024883     2     5     3    10
 -0.1462530223     2     5     4     1
 -0.0000014831     2     5     4     2
 -0.0065370929     2     5     4     3
 0.0000000094     2     5     4     4
 0.0000000109     2     5     4    10
 0.0000000017     2     5     5     1
 -0.6058055440     2     5     5     2
 -0.0000001059     2     5     5     3
 0.0198970163     2     5     5     4
 0.0031199949     2     5     5    10
 -0.0000000330     2     5     6     6
 -0.0003319489     2     5     6     8
 0.0005185032     2     5     6     9
 -0.0000000330     2     5     7     7
 0.0005185033     2     5     7     8
 0.0003319490     2     5     7     9
 -0.0007406814     2     5     8     6
 0.0011569421     2     5     8     7
 -0.0000000272     2     5     8     8
 -0.0000000001     2     5     8     9
 0.0011569421     2     5     9     6
 0.0007406814     2     5     9     7
 -0.0000000001     2     5     9     8
 -0.0000000272     2     5     9     9
 0.2314641770     2     5    10     1
 0.0000023461     2     5    10     2
 0.0147216798     2     5    10     3
 -0.0000000771     2     5    10     4
 -0.0000000612     2     5    10    10
 -0.0000562325     2     6     1     8
 0.0000878351     2     6     1     9
 0.0010012919     2     6     3     8
 -0.0015640149     2     6     3     9
 0.0000000014     2     6     4     8
 -0.0000000022     2     6     4     9
 0.0004979121     2     6     5     8
 -0.0007777371     2     6     5     9
 0.0000000023     2     6     6     1
 -0.5844526384     2     6     6     2
 -0.0000000965     2     6     6     3
 0.0197048201     2     6     6     4
 0.0000000330     2     6     6     5
 0.0032448375     2     6     6    10
 -0.0000000001     2     6     7     1
 0.0000000001     2     6     7     2
 -0.1437863612     2     6     8     1
 -0.0000014574     2     6     8     2
 -0.0085761525     2     6     8     3
 0.0000000455     2     6     8     4
 0.0007406814     2     6     8     5
 0.0000000226     2     6     8    10
 0.2245938666     2     6     9     1
 0.0000022765     2     6     9     2
 0.0133959247     2     6     9     3
 -0.0000000710     2     6     9     4
 -0.0011569421     2     6     9     5
 -0.0000000353     2     6     9    10
 0.0000000003     2     6    10     8
 -0.0000000006     2     6    10     9
 0.0000878351     2     7     1     8
 0.0000562325     2     7     1     9
 -0.0015640150     2     7     3     8
 -0.0010012919     2     7     3     9
 -0.0000000022     2     7     4     8
 -0.0000000013     2     7     4     9
 -0.0007777372     2     7     5     8
 -0.0004979121     2     7     5     9
 -0.0000000001     2     7     6     1
 0.0000000001     2     7     6     2
 0.0000000013     2     7     7     1
 -0.5844526373     2     7     7     2
 -0.0000000967     2     7     7     3
 0.0197048200     2     7     7     4
 0.0000000330     2     7     7     5
 0.0032448375     2     7     7    10
 0.2245938668     2     7     8     1
 0.0000022773     2     7     8     2
 0.0133959246     2     7     8     3
 -0.0000000711     2     7     8     4
 -0.0011569421     2     7     8     5
 -0.0000000356     2     7     8    10
 0.1437863614     2     7     9     1
 0.0000014580     2     7     9     2
 0.0085761526     2     7     9     3
 -0.0000000455     2     7     9     4
 -0.0007406814     2     7     9     5
 -0.0000000228     2     7     9    10
 -0.0000000009     2     7    10     8
 -0.0000000006     2     7    10     9
 0.0000562325     2     8     1     6
 -0.0000878351     2     8     1     7
 -0.0010012919     2     8     3     6
 0.0015640150     2     8     3     7
 -0.0000000014     2     8     4     6
 0.0000000022     2     8     4     7
 -0.0004979121     2     8     5     6
 0.0007777372     2     8     5     7
 -0.1437283235     2     8     6     1
 -0.0000014574     2     8     6     2
 -0.0100865395     2     8     6     3
 0.0000000472     2     8     6     4
 0.0003319489     2     8     6     5
 0.0000000231     2     8     6    10
 0.2245032119     2     8     7     1
 0.0000022773     2     8     7     2
 0.0157551445     2     8     7     3
 -0.0000000738     2     8     7     4
 -0.0005185033     2     8     7     5
 -0.0000000360     2     8     7    10
 -0.0000000011     2     8     8     1
 -0.5723406927     2     8     8     2
 -0.0000000866     2     8     8     3
 0.0193267638     2     8     8     4
 0.0000000272     2     8     8     5
 0.0051914103     2     8     8    10
 0.0000000001     2     8     9     2
 0.0000000001     2     8     9     5
 -0.0000000001     2     8     9    10
 -0.0000000003     2     8    10     6
 0.0000000009     2     8    10     7
 -0.0000878351     2     9     1     6
 -0.0000562325     2     9     1     7
 0.0015640149     2     9     3     6
 0.0010012919     2     9     3     7
 0.0000000022     2     9     4     6
 0.0000000013     2     9     4     7
 0.0007777371     2     9     5     6
 0.0004979121     2     9     5     7
 0.2245032117     2     9     6     1
 0.0000022765     2     9     6     2
 0.0157551446     2     9     6     3
 -0.0000000737     2     9     6     4
 -0.0005185032     2     9     6     5
 -0.0000000360     2     9     6    10
 0.1437283236     2     9     7     1
 0.0000014580     2     9     7     2
 0.0100865396     2     9     7     3
 -0.0000000472     2     9     7     4
 -0.0003319490     2     9     7     5
 -0.0000000230     2     9     7    10
 0.0000000001     2     9     8     2
 0.0000000001     2     9     8     5
 -0.0000000001     2     9     8    10
 -0.0000000011     2     9     9     1
 -0.5723406928     2     9     9     2
 -0.0000000866     2     9     9     3
 0.0193267638     2     9     9     4
 0.0000000272     2     9     9     5
 0.0051914103     2     9     9    10
 0.0000000006     2     9    10     6
 0.0000000006     2     9    10     7
 0.0052214808     2    10     1     1
 0.0000000264     2    10     1     2
 -0.0000427663     2    10     1     3
 0.0000000001     2    10     1     4
 -0.0002081956     2    10     1     5
 0.0974506918     2    10     3     1
 0.0000009880     2    10     3     2
 0.0064568458     2    10     3     3
 0.0000000016     2    10     3     4
 0.0031024883     2    10     3     5
 -0.0000000003     2    10     4     1
 -0.0560851040     2    10     4     2
 0.0000000284     2    10     4     3
 -0.0022185100     2    10     4     4
 -0.0000000109     2    10     4     5
 0.2312612630     2    10     5     1
 0.0000023461     2    10     5     2
 0.0188439757     2    10     5     3
 -0.0000000946     2    10     5     4
 -0.0031199949     2    10     5     5
 -0.0032448375     2    10     6     6
 -0.0000000231     2    10     6     8
 0.0000000360     2    10     6     9
 -0.0032448375     2    10     7     7
 0.0000000360     2    10     7     8
 0.0000000230     2    10     7     9
 -0.0000000226     2    10     8     6
 0.0000000356     2    10     8     7
 -0.0051914103     2    10     8     8
 0.0000000001     2    10     8     9
 0.0000000353     2    10     9     6
 0.0000000228     2    10     9     7
 0.0000000001     2    10     9     8
 -0.0051914103     2    10     9     9
 -0.0000000016     2    10    10     1
 -0.5859056471     2    10    10     2
 -0.0000000741     2    10    10     3
 0.0196042512     2    10    10     4
 0.0000000612     2    10    10     5
 0.0000000055     3     1     1     2
 -0.6070342319     3     1     1     3
 -0.0000029714     3     1     1     4
 -0.0295577146     3     1     1     5
 -0.0000009889     3     1     1    10
 -0.0010830043     3     1     2     2
 0.0000000030     3     1     2     3
 0.2930335044     3     1     2     4
 0.0000000002     3     1     2     5
 0.0974506918     3     1     2    10
 0.0000182914     3     1     4     2
 -0.0000000063     3     1     4     3
 0.0016894093     3     1     4     4
 -0.0000000355     3     1     4     5
 -0.0049076605     3     1     4    10
 0.0065356219     3     1     5     3
 -0.0000000334     3     1     5     4
 0.0209617099     3     1     5     5
 0.0000000749     3     1     5    10
 0.0190690265     3     1     6     6
 -0.0000000436     3     1     6     8
 0.0000000680     3     1     6     9
 0.0190690264     3     1     7     7
 0.0000000680     3     1     7     8
 0.0000000435     3     1     7     9
 -0.0000000512     3     1     8     6
 0.0000000799     3     1     8     7
 0.0170979510     3     1     8     8
 0.0000000800     3     1     9     6
 0.0000000512     3     1     9     7
 0.0170979510     3     1     9     9
 -0.0000427663     3     1    10     2
 0.0000000327     3     1    10     3
 -0.0056204569     3     1    10     4
 0.0000000957     3     1    10     5
 0.0149071814     3     1    10    10
 -0.0000000055     3     2     1     1
 0.0000000030     3     2     1     3
 0.2930145010     3     2     1     4
 0.0000000002     3     2     1     5
 0.0974942789     3     2     1    10
 0.0010830043     3     2     2     1
 -0.6070200839     3     2     2     3
 0.0000029714     3     2     2     4
 -0.0295793428     3     2     2     5
 0.0000009880     3     2     2    10
 -0.0000182914     3     2     4     1
 0.0012463427     3     2     4     3
 0.0000000086     3     2     4     4
 0.0069573703     3     2     4     5
 -0.0000000249     3     2     4    10
 0.0000000331     3     2     5     3
 0.0065370929     3     2     5     4
 0.0000001059     3     2     5     5
 -0.0147216798     3     2     5    10
 0.0000000965     3     2     6     6
 0.0085761525     3     2     6     8
 -0.0133959247     3     2     6     9
 0.0000000967     3     2     7     7
 -0.0133959246     3     2     7     8
 -0.0085761526     3     2     7     9
 0.0100865395     3     2     8     6
 -0.0157551445     3     2     8     7
 0.0000000866     3     2     8     8
 -0.0157551446     3     2     9     6
 -0.0100865396     3     2     9     7
 0.0000000866     3     2     9     9
 0.0000427663     3     2    10     1
 -0.0064568458     3     2    10     3
 -0.0000000284     3     2    10     4
 -0.0188439757     3     2    10     5
 0.0000000741     3     2    10    10
 0.6070342319     3     3     1     1