&FCI NORB= 10,NELEC= 14,MS2=0,
 ORBSYM=1,1,1,1,1,1,1,1,1,1
 ISYM=1,
&END
 0.4411365785     1     1     2     2
 -0.0058000846     1     1     2     4
 0.0000000001     1     1     2     5
 -0.0002806708     1     1     2    10
 0.7574655643     1     1     3     3
 0.0000000002     1     1     3     4
 0.0910287946     1     1     3     5
 -0.0000000009     1     1     3    10
 -0.0058000846     1     1     4     2
 0.0000000002     1     1     4     3
 0.6305791050     1     1     4     4
 0.0000000003     1     1     4     5
 0.0801012260     1     1     4    10
 0.0000000001     1     1     5     2
 0.0910287946     1     1     5     3
 0.0000000003     1     1     5     4
 0.6651580698     1     1     5     5
 0.0000000020     1     1     5    10
 0.6589039954     1     1     6     6
 -0.0000000009     1     1     6     8
 -0.0000000002     1     1     6     9
 0.6589039953     1     1     7     7
 -0.0000000006     1     1     7     8
 -0.0000000001     1     1     7     9
 -0.0000000009     1     1     8     6
 -0.0000000006     1     1     8     7
 0.5738508548     1     1     8     8
 -0.0000000002     1     1     9     6
 -0.0000000001     1     1     9     7
 0.5738508549     1     1     9     9
 -0.0002806708     1     1    10     2
 -0.0000000009     1     1    10     3
 0.0801012260     1     1    10     4
 0.0000000020     1     1    10     5
 0.2656405646     1     1    10    10
 -0.4411365785     1     2     2     1
 0.0074270702     1     2     2     3
 0.0000000001     1     2     2     4
 0.0138351760     1     2     2     5
 0.0000000001     1     2     3     3
 -0.1689870627     1     2     3     4
 0.0000000002     1     2     3     5
 -0.0527232471     1     2     3    10
 0.0058000846     1     2     4     1
 -0.1691920925     1     2     4     3
 -0.0000000001     1     2     4     4
 0.2287163307     1     2     4     5
 0.0000000028     1     2     4    10
 -0.0000000001     1     2     5     1
 0.0000000003     1     2     5     3
 0.2290843160     1     2     5     4
 0.0000000002     1     2     5     5
 0.0098882926     1     2     5    10
 -0.0000000003     1     2     6     6
 -0.1286177519     1     2     6     8
 -0.1323506618     1     2     6     9
 -0.0000000003     1     2     7     7
 -0.1323506619     1     2     7     8
 0.1286177516     1     2     7     9
 -0.1283561755     1     2     8     6
 -0.1320814939     1     2     8     7
 -0.1320814937     1     2     9     6
 0.1283561752     1     2     9     7
 0.0002806708     1     2    10     1
 -0.0527164639     1     2    10     3
 0.0000000028     1     2    10     4
 0.0098627900     1     2    10     5
 -0.0000000008     1     2    10    10
 -0.0074270702     1     3     2     2
 0.0002046213     1     3     2     4
 -0.0000000001     1     3     2     5
 0.0000045121     1     3     2    10
 -0.7574655643     1     3     3     1
 -0.0000000001     1     3     3     2
 -0.0000000002     1     3     3     4
 0.0189332667     1     3     3     5
 -0.0000000002     1     3     4     1
 0.1691920925     1     3     4     2
 0.0076355475     1     3     4     4
 -0.0000000003     1     3     4     5
 0.0002879527     1     3     4    10
 -0.0910287946     1     3     5     1
 -0.0000000003     1     3     5     2
 -0.0000000007     1     3     5     4
 0.0239369785     1     3     5     5
 -0.0000000006     1     3     5    10
 0.0175940511     1     3     6     6
 -0.0000000001     1     3     6     8
 -0.0000000001     1     3     6     9
 0.0175940511     1     3     7     7
 -0.0000000001     1     3     7     8
 0.0000000001     1     3     7     9
 -0.0000000001     1     3     8     6
 -0.0000000001     1     3     8     7
 0.0131738966     1     3     8     8
 -0.0000000001     1     3     9     6
 0.0000000001     1     3     9     7
 0.0131738967     1     3     9     9
 0.0000000009     1     3    10     1
 0.0527164639     1     3    10     2
 -0.0001626329     1     3    10     4
 -0.0000000008     1     3    10     5
 0.0006039872     1     3    10    10
 0.0058000846     1     4     2     1
 -0.0000000001     1     4     2     2
 -0.0002046213     1     4     2     3
 -0.0003684948     1     4     2     5
 -0.0000000002     1     4     3     1
 0.1689870627     1     4     3     2
 0.0000000002     1     4     3     3
 0.0000000004     1     4     3     5
 0.0003994603     1     4     3    10
 -0.6305791050     1     4     4     1
 0.0000000001     1     4     4     2
 -0.0076355475     1     4     4     3
 -0.0027383066     1     4     4     5
 -0.0000000001     1     4     4    10
 -0.0000000003     1     4     5     1
 -0.2290843160     1     4     5     2
 0.0000000007     1     4     5     3
 0.0000000006     1     4     5     5
 0.0017315345     1     4     5    10
 0.0080759967     1     4     6     8
 0.0083103886     1     4     6     9
 0.0083103886     1     4     7     8
 -0.0080759966     1     4     7     9
 0.0086573888     1     4     8     6
 0.0089086546     1     4     8     7
 -0.0000000001     1     4     8     8
 0.0089086546     1     4     9     6
 -0.0086573887     1     4     9     7
 -0.0000000002     1     4     9     9
 -0.0801012260     1     4    10     1
 -0.0000000028     1     4    10     2
 0.0001626329     1     4    10     3
 0.0006874787     1     4    10     5
 -0.0000000146     1     4    10    10
 -0.0000000001     1     5     2     1
 -0.0138351760     1     5     2     2
 0.0000000001     1     5     2     3
 0.0003684948     1     5     2     4
 0.0000197321     1     5     2    10
 -0.0910287946     1     5     3     1
 -0.0000000002     1     5     3     2
 -0.0189332667     1     5     3     3
 -0.0000000004     1     5     3     4
 -0.0000000003     1     5     4     1
 -0.2287163307     1     5     4     2
 0.0000000003     1     5     4     3
 0.0027383066     1     5     4     4
 0.0008692379     1     5     4    10
 -0.6651580698     1     5     5     1
 -0.0000000002     1     5     5     2
 -0.0239369785     1     5     5     3
 -0.0000000006     1     5     5     4
 -0.0000000003     1     5     5    10
 -0.0135136363     1     5     6     6
 0.0000000001     1     5     6     9
 -0.0135136363     1     5     7     7
 0.0000000001     1     5     7     8
 -0.0000000001     1     5     7     9
 -0.0077001944     1     5     8     8
 0.0000000001     1     5     9     6
 -0.0000000001     1     5     9     7
 -0.0077001942     1     5     9     9
 -0.0000000020     1     5    10     1
 -0.0098627900     1     5    10     2
 0.0000000008     1     5    10     3
 -0.0006874787     1     5    10     4
 0.0006103425     1     5    10    10
 -0.0002435890     1     6     2     8
 -0.0002506588     1     6     2     9
 -0.0014452364     1     6     4     8
 -0.0014871819     1     6     4     9
 -0.6589039954     1     6     6     1
 0.0000000003     1     6     6     2
 -0.0175940511     1     6     6     3
 0.0135136363     1     6     6     5
 0.0000000001     1     6     6    10
 0.0000000009     1     6     8     1
 0.1283561755     1     6     8     2
 0.0000000001     1     6     8     3
 -0.0086573888     1     6     8     4
 -0.0032526186     1     6     8    10
 0.0000000002     1     6     9     1
 0.1320814937     1     6     9     2
 0.0000000001     1     6     9     3
 -0.0089086546     1     6     9     4
 -0.0000000001     1     6     9     5
 -0.0033470202     1     6     9    10
 -0.0001994446     1     6    10     8
 -0.0002052331     1     6    10     9
 -0.0002506587     1     7     2     8
 0.0002435891     1     7     2     9
 -0.0014871819     1     7     4     8
 0.0014452364     1     7     4     9
 -0.6589039953     1     7     7     1
 0.0000000003     1     7     7     2
 -0.0175940511     1     7     7     3
 0.0135136363     1     7     7     5
 0.0000000001     1     7     7    10
 0.0000000006     1     7     8     1
 0.1320814939     1     7     8     2
 0.0000000001     1     7     8     3
 -0.0089086546     1     7     8     4
 -0.0033470202     1     7     8    10
 0.0000000001     1     7     9     1
 -0.1283561752     1     7     9     2
 -0.0000000001     1     7     9     3
 0.0086573887     1     7     9     4
 0.0000000001     1     7     9     5
 0.0032526186     1     7     9    10
 -0.0002052331     1     7    10     8
 0.0001994446     1     7    10     9
 0.0002435890     1     8     2     6
 0.0002506587     1     8     2     7
 0.0014452364     1     8     4     6
 0.0014871819     1     8     4     7
 0.0000000009     1     8     6     1
 0.1286177519     1     8     6     2
 0.0000000001     1     8     6     3
 -0.0080759967     1     8     6     4
 -0.0031643935     1     8     6    10
 0.0000000006     1     8     7     1
 0.1323506619     1     8     7     2
 0.0000000001     1     8     7     3
 -0.0083103886     1     8     7     4
 -0.0000000001     1     8     7     5
 -0.0032562346     1     8     7    10
 -0.5738508548     1     8     8     1
 -0.0131738966     1     8     8     3
 0.0000000001     1     8     8     4
 0.0077001944     1     8     8     5
 -0.0000000003     1     8     8    10
 0.0001994446     1     8    10     6
 0.0002052331     1     8    10     7
 0.0002506588     1     9     2     6
 -0.0002435891     1     9     2     7
 0.0014871819     1     9     4     6
 -0.0014452364     1     9     4     7
 0.0000000002     1     9     6     1
 0.1323506618     1     9     6     2
 0.0000000001     1     9     6     3
 -0.0083103886     1     9     6     4
 -0.0000000001     1     9     6     5
 -0.0032562346     1     9     6    10
 0.0000000001     1     9     7     1
 -0.1286177516     1     9     7     2
 -0.0000000001     1     9     7     3
 0.0080759966     1     9     7     4
 0.0000000001     1     9     7     5
 0.0031643935     1     9     7    10
 -0.5738508549     1     9     9     1
 -0.0131738967     1     9     9     3
 0.0000000002     1     9     9     4
 0.0077001942     1     9     9     5
 -0.0000000003     1     9     9    10
 0.0002052331     1     9    10     6
 -0.0001994446     1     9    10     7
 0.0002806708     1    10     2     1
 -0.0000045121     1    10     2     3
 -0.0000197321     1    10     2     5
 0.0000000009     1    10     3     1
 0.0527232471     1    10     3     2
 -0.0003994603     1    10     3     4
 -0.0801012260     1    10     4     1
 -0.0000000028     1    10     4     2
 -0.0002879527     1    10     4     3
 0.0000000001     1    10     4     4
 -0.0008692379     1    10     4     5
 -0.0000000020     1    10     5     1
 -0.0098882926     1    10     5     2
 0.0000000006     1    10     5     3
 -0.0017315345     1    10     5     4
 0.0000000003     1    10     5     5
 -0.0000000001     1    10     6     6
 0.0031643935     1    10     6     8
 0.0032562346     1    10     6     9
 -0.0000000001     1    10     7     7
 0.0032562346     1    10     7     8
 -0.0031643935     1    10     7     9
 0.0032526186     1    10     8     6
 0.0033470202     1    10     8     7
 0.0000000003     1    10     8     8
 0.0033470202     1    10     9     6
 -0.0032526186     1    10     9     7
 0.0000000003     1    10     9     9
 -0.2656405646     1    10    10     1
 0.0000000008     1    10    10     2
 -0.0006039872     1    10    10     3
 0.0000000146     1    10    10     4
 -0.0006103425     1    10    10     5
 -0.4411365785     2     1     1     2
 0.0058000846     2     1     1     4
 -0.0000000001     2     1     1     5
 0.0002806708     2     1     1    10
 0.0074270702     2     1     3     2
 0.0000000001     2     1     3     3
 -0.1691920925     2     1     3     4
 0.0000000003     2     1     3     5
 -0.0527164639     2     1     3    10
 0.0000000001     2     1     4     2
 -0.1689870627     2     1     4     3
 -0.0000000001     2     1     4     4
 0.2290843160     2     1     4     5
 0.0000000028     2     1     4    10
 0.0138351760     2     1     5     2
 0.0000000002     2     1     5     3
 0.2287163307     2     1     5     4
 0.0000000002     2     1     5     5
 0.0098627900     2     1     5    10
 -0.0000000003     2     1     6     6
 -0.1283561755     2     1     6     8
 -0.1320814937     2     1     6     9
 -0.0000000003     2     1     7     7
 -0.1320814939     2     1     7     8
 0.1283561752     2     1     7     9
 -0.1286177519     2     1     8     6
 -0.1323506619     2     1     8     7
 -0.1323506618     2     1     9     6
 0.1286177516     2     1     9     7
 -0.0527232471     2     1    10     3
 0.0000000028     2     1    10     4
 0.0098882926     2     1    10     5
 -0.0000000008     2     1    10    10
 0.4411365785     2     2     1     1
 -0.0074270702     2     2     1     3
 -0.0000000001     2     2     1     4
 -0.0138351760     2     2     1     5
 -0.0074270702     2     2     3     1
 0.7576095869     2     2     3     3
 0.0000000002     2     2     3     4
 0.0914407900     2     2     3     5
 -0.0000000008     2     2     3    10
 -0.0000000001     2     2     4     1
 0.0000000002     2     2     4     3
 0.6304630343     2     2     4     4
 0.0000000001     2     2     4     5
 0.0800815627     2     2     4    10
 -0.0138351760     2     2     5     1
 0.0914407900     2     2     5     3
 0.0000000001     2     2     5     4
 0.6660588408     2     2     5     5
 0.0000000020     2     2     5    10
 0.6593304450     2     2     6     6
 -0.0000000008     2     2     6     8
 -0.0000000001     2     2     6     9
 0.6593304450     2     2     7     7
 -0.0000000005     2     2     7     8
 -0.0000000002     2     2     7     9
 -0.0000000008     2     2     8     6
 -0.0000000005     2     2     8     7
 0.5736072736     2     2     8     8
 -0.0000000001     2     2     9     6
 -0.0000000002     2     2     9     7
 0.5736072737     2     2     9     9
 -0.0000000008     2     2    10     3
 0.0800815627     2     2    10     4
 0.0000000020     2     2    10     5
 0.2656418608     2     2    10    10
 0.0074270702     2     3     1     2
 -0.0002046213     2     3     1     4
 0.0000000001     2     3     1     5
 -0.0000045121     2     3     1    10
 -0.0000000001     2     3     3     1
 -0.7576095869     2     3     3     2
 0.0099390096     2     3     3     4
 -0.0000000005     2     3     3     5
 0.0009775887     2     3     3    10
 0.1689870627     2     3     4     1
 -0.0000000002     2     3     4     2
 -0.0000000001     2     3     4     4
 0.0150094651     2     3     4     5
 0.0000000002     2     3     4    10
 -0.0000000002     2     3     5     1
 -0.0914407900     2     3     5     2
 0.0200320513     2     3     5     4
 -0.0000000007     2     3     5     5
 0.0021611277     2     3     5    10
 -0.0139743916     2     3     6     8
 -0.0143799745     2     3     6     9
 -0.0143799745     2     3     7     8
 0.0139743917     2     3     7     9
 -0.0095004370     2     3     8     6
 -0.0097761709     2     3     8     7
 -0.0097761709     2     3     9     6
 0.0095004370     2     3     9     7
 -0.0000000001     2     3     9     9
 0.0527232471     2     3    10     1
 0.0000000008     2     3    10     2
 0.0005025343     2     3    10     5
 -0.0000000013     2     3    10    10
 -0.0058000846     2     4     1     1
 0.0000000001     2     4     1     2
 0.0002046213     2     4     1     3
 0.0003684948     2     4     1     5
 0.1691920925     2     4     3     1
 -0.0000000002     2     4     3     2
 -0.0099390096     2     4     3     3
 -0.0050225309     2     4     3     5
 0.0000000002     2     4     3    10
 0.0000000001     2     4     4     1
 -0.6304630343     2     4     4     2
 0.0000000001     2     4     4     3
 0.0000000001     2     4     4     5
 0.0006490970     2     4     4    10
 -0.2287163307     2     4     5     1
 -0.0000000001     2     4     5     2
 -0.0200320513     2     4     5     3
 -0.0205495682     2     4     5     5
 0.0000000002     2     4     5    10
 -0.0197264760     2     4     6     6
 0.0000000001     2     4     6     8
 0.0000000001     2     4     6     9
 -0.0197264760     2     4     7     7
 0.0000000001     2     4     7     8
 -0.0000000001     2     4     7     9
 0.0000000001     2     4     8     6
 0.0000000001     2     4     8     7
 -0.0166699098     2     4     8     8
 0.0000000001     2     4     9     6
 -0.0000000001     2     4     9     7
 -0.0166699097     2     4     9     9
 -0.0000000028     2     4    10     1
 -0.0800815627     2     4    10     2
 0.0000000003     2     4    10     5
 0.0000745209     2     4    10    10
 0.0000000001     2     5     1     1
 0.0138351760     2     5     1     2
 -0.0000000001     2     5     1     3
 -0.0003684948     2     5     1     4
 -0.0000197321     2     5     1    10
 -0.0000000003     2     5     3     1
 -0.0914407900     2     5     3     2
 0.0000000005     2     5     3     3
 0.0050225309     2     5     3     4
 0.0015020233     2     5     3    10
 -0.2290843160     2     5     4     1
 -0.0000000001     2     5     4     2
 -0.0150094651     2     5     4     3
 -0.0000000001     2     5     4     4
 -0.0000000002     2     5     5     1
 -0.6660588408     2     5     5     2
 0.0000000007     2     5     5     3
 0.0205495682     2     5     5     4
 0.0044316919     2     5     5    10
 0.0000000001     2     5     6     6
 0.0001735252     2     5     6     8
 0.0001785614     2     5     6     9
 0.0000000001     2     5     7     7
 0.0001785614     2     5     7     8
 -0.0001735251     2     5     7     9
 0.0013991906     2     5     8     6
 0.0014397997     2     5     8     7
 -0.0000000002     2     5     8     8
 0.0000000001     2     5     8     9
 0.0014397996     2     5     9     6
 -0.0013991905     2     5     9     7
 0.0000000001     2     5     9     8
 -0.0000000004     2     5     9     9
 -0.0098882926     2     5    10     1
 -0.0000000020     2     5    10     2
 -0.0005025343     2     5    10     3
 -0.0000000003     2     5    10     4
 -0.0000000195     2     5    10    10
 0.0002435890     2     6     1     8
 0.0002506588     2     6     1     9
 -0.0033283218     2     6     3     8
 -0.0034249207     2     6     3     9
 -0.0009878155     2     6     5     8
 -0.0010164851     2     6     5     9
 0.0000000003     2     6     6     1
 -0.6593304450     2     6     6     2
 0.0197264760     2     6     6     4
 -0.0000000001     2     6     6     5
 0.0055055466     2     6     6    10
 0.1286177519     2     6     8     1
 0.0000000008     2     6     8     2
 0.0095004370     2     6     8     3
 -0.0000000001     2     6     8     4
 -0.0013991906     2     6     8     5
 0.1323506618     2     6     9     1
 0.0000000001     2     6     9     2
 0.0097761709     2     6     9     3
 -0.0000000001     2     6     9     4
 -0.0014397996     2     6     9     5
 0.0000000001     2     6    10     8
 0.0000000001     2     6    10     9
 0.0002506587     2     7     1     8
 -0.0002435891     2     7     1     9
 -0.0034249207     2     7     3     8
 0.0033283219     2     7     3     9
 -0.0010164851     2     7     5     8
 0.0009878155     2     7     5     9
 0.0000000003     2     7     7     1
 -0.6593304450     2     7     7     2
 0.0197264760     2     7     7     4
 -0.0000000001     2     7     7     5
 0.0055055466     2     7     7    10
 0.1323506619     2     7     8     1
 0.0000000005     2     7     8     2
 0.0097761709     2     7     8     3
 -0.0000000001     2     7     8     4
 -0.0014397997     2     7     8     5
 -0.1286177516     2     7     9     1
 0.0000000002     2     7     9     2
 -0.0095004370     2     7     9     3
 0.0000000001     2     7     9     4
 0.0013991905     2     7     9     5
 0.0000000001     2     7    10     8
 -0.0000000001     2     7    10     9
 -0.0002435890     2     8     1     6
 -0.0002506587     2     8     1     7
 0.0033283218     2     8     3     6
 0.0034249207     2     8     3     7
 0.0009878155     2     8     5     6
 0.0010164851     2     8     5     7
 0.1283561755     2     8     6     1
 0.0000000008     2     8     6     2
 0.0139743916     2     8     6     3
 -0.0000000001     2     8     6     4
 -0.0001735252     2     8     6     5
 -0.0000000001     2     8     6    10
 0.1320814939     2     8     7     1
 0.0000000005     2     8     7     2
 0.0143799745     2     8     7     3
 -0.0000000001     2     8     7     4
 -0.0001785614     2     8     7     5
 -0.0000000001     2     8     7    10
 -0.5736072736     2     8     8     2
 0.0166699098     2     8     8     4
 0.0000000002     2     8     8     5
 0.0047888705     2     8     8    10
 -0.0000000001     2     8     9     5
 -0.0000000001     2     8    10     6
 -0.0000000001     2     8    10     7
 -0.0002506588     2     9     1     6
 0.0002435891     2     9     1     7
 0.0034249207     2     9     3     6
 -0.0033283219     2     9     3     7
 0.0010164851     2     9     5     6
 -0.0009878155     2     9     5     7
 0.1320814937     2     9     6     1
 0.0000000001     2     9     6     2
 0.0143799745     2     9     6     3
 -0.0000000001     2     9     6     4
 -0.0001785614     2     9     6     5
 -0.1283561752     2     9     7     1
 0.0000000002     2     9     7     2
 -0.0139743917     2     9     7     3
 0.0000000001     2     9     7     4
 0.0001735251     2     9     7     5
 -0.0000000001     2     9     8     5
 -0.5736072737     2     9     9     2
 0.0000000001     2     9     9     3
 0.0166699097     2     9     9     4
 0.0000000004     2     9     9     5
 0.0047888705     2     9     9    10
 -0.0000000001     2     9    10     6
 0.0000000001     2     9    10     7
 -0.0002806708     2    10     1     1
 0.0000045121     2    10     1     3
 0.0000197321     2    10     1     5
 0.0527164639     2    10     3     1
 0.0000000008     2    10     3     2
 -0.0009775887     2    10     3     3
 -0.0000000002     2    10     3     4
 -0.0015020233     2    10     3     5
 -0.0000000028     2    10     4     1
 -0.0800815627     2    10     4     2
 -0.0000000002     2    10     4     3
 -0.0006490970     2    10     4     4
 -0.0098627900     2    10     5     1
 -0.0000000020     2    10     5     2
 -0.0021611277     2    10     5     3
 -0.0000000002     2    10     5     4
 -0.0044316919     2    10     5     5
 -0.0055055466     2    10     6     6
 0.0000000001     2    10     6     8
 -0.0055055466     2    10     7     7
 0.0000000001     2    10     7     8
 -0.0047888705     2    10     8     8
 -0.0047888705     2    10     9     9
 0.0000000008     2    10    10     1
 -0.2656418608     2    10    10     2
 0.0000000013     2    10    10     3
 -0.0000745209     2    10    10     4
 0.0000000195     2    10    10     5
 -0.7574655643     3     1     1     3
 -0.0000000002     3     1     1     4
 -0.0910287946     3     1     1     5
 0.0000000009     3     1     1    10
 -0.0074270702     3     1     2     2
 -0.0000000001     3     1     2     3
 0.1691920925     3     1     2     4
 -0.0000000003     3     1     2     5
 0.0527164639     3     1     2    10
 0.0002046213     3     1     4     2
 -0.0000000002     3     1     4     3
 0.0076355475     3     1     4     4
 -0.0000000007     3     1     4     5
 -0.0001626329     3     1     4    10
 -0.0000000001     3     1     5     2
 0.0189332667     3     1     5     3
 -0.0000000003     3     1     5     4
 0.0239369785     3     1     5     5
 -0.0000000008     3     1     5    10
 0.0175940511     3     1     6     6
 -0.0000000001     3     1     6     8
 -0.0000000001     3     1     6     9
 0.0175940511     3     1     7     7
 -0.0000000001     3     1     7     8
 0.0000000001     3     1     7     9
 -0.0000000001     3     1     8     6
 -0.0000000001     3     1     8     7
 0.0131738966     3     1     8     8
 -0.0000000001     3     1     9     6
 0.0000000001     3     1     9     7
 0.0131738967     3     1     9     9
 0.0000045121     3     1    10     2
 0.0002879527     3     1    10     4
 -0.0000000006     3     1    10     5
 0.0006039872     3     1    10    10
 -0.0000000001     3     2     1     3
 0.1689870627     3     2     1     4
 -0.0000000002     3     2     1     5
 0.0527232471     3     2     1    10
 0.0074270702     3     2     2     1
 -0.7576095869     3     2     2     3
 -0.0000000002     3     2     2     4
 -0.0914407900     3     2     2     5
 0.0000000008     3     2     2    10
 -0.0002046213     3     2     4     1
 0.0099390096     3     2     4     3
 -0.0000000001     3     2     4     4
 0.0200320513     3     2     4     5
 0.0000000001     3     2     5     1
 -0.0000000005     3     2     5     3
 0.0150094651     3     2     5     4
 -0.0000000007     3     2     5     5
 0.0005025343     3     2     5    10
 -0.0095004370     3     2     6     8
 -0.0097761709     3     2     6     9
 -0.0097761709     3     2     7     8
 0.0095004370     3     2     7     9
 -0.0139743916     3     2     8     6
 -0.0143799745     3     2     8     7
 -0.0143799745     3     2     9     6
 0.0139743917     3     2     9     7
 -0.0000000001     3     2     9     9
 -0.0000045121     3     2    10     1
 0.0009775887     3     2    10     3
 0.0000000002     3     2    10     4
 0.0021611277     3     2    10     5
 -0.0000000013     3     2    10    10
 0.7574655643     3     3     1     1
 0.0000000001     3     3     1     2
 0.0000000002     3     3     1     4
 -0.0189332667     3     3     1     5
 0.0000000001     3     3     2     1
 0.7576095869     3     3     2     2
 -0.0099390096     3     3     2     4
 0.0000000005     3     3     2     5
 -0.0009775887     3     3     2    10
 0.0000000002     3     3     4     1
 -0.0099390096     3     3     4     2
 0.4392920968     3     3     4     4
 0.0000000003     3     3     4     5
 0.0422012524     3     3     4    10
 -0.0189332667     3     3     5     1
 0.0000000005     3     3     5     2
 0.0000000003     3     3     5     4
 0.4807711368     3     3     5     5
 0.0000000024     3     3     5    10
 0.5079805650     3     3     6     6
 -0.0000000001     3     3     6     7
 -0.0000000007     3     3     6     8
 -0.0000000004     3     3     6     9
 -0.0000000001     3     3     7     6
 0.5079805649     3     3     7     7
 -0.0000000006     3     3     7     8
 0.0000000002     3     3     7     9
 -0.0000000007     3     3     8     6
 -0.0000000006     3     3     8     7
 0.4662786779     3     3     8     8
 -0.0000000004     3     3     9     6
 0.0000000002     3     3     9     7
 0.4662786779     3     3     9     9
 -0.0009775887     3     3    10     2
 0.0422012524     3     3    10     4
 0.0000000024     3     3    10     5
 0.2417872946     3     3    10    10
 0.0000000002     3     4     1     1
 -0.1689870627     3     4     1     2
 -0.0000000002     3     4     1     3
 -0.0000000004     3     4     1     5
 -0.0003994603     3     4     1    10
 -0.1691920925     3     4     2     1
 0.0000000002     3     4     2     2
 0.0099390096     3     4     2     3
 0.0050225309     3     4     2     5
 -0.0000000002     3     4     2    10
 -0.0076355475     3     4     4     1
 0.0000000001     3     4     4     2
 -0.4392920968     3     4     4     3
 -0.1031377721     3     4     4     5
 -0.0000000006     3     4     4    10
 0.0000000003     3     4     5     1
 -0.0150094651     3     4     5     2
 -0.0000000003     3     4     5     3
 -0.0000000008     3     4     5     5
 0.0196667478     3     4     5    10
 0.0000000001     3     4     6     6
 0.0331215771     3     4     6     8
 0.0340828742     3     4     6     9
 0.0000000002     3     4     7     7
 0.0340828742     3     4     7     8
 -0.0331215771     3     4     7     9
 0.0172876633     3     4     8     6
 0.0177894082     3     4     8     7
 -0.0000000008     3     4     8     8
 0.0177894081     3     4     9     6
 -0.0172876633     3     4     9     7
 -0.0000000009     3     4     9     9
 -0.0002879527     3     4    10     1
 -0.0000000002     3     4    10     2
 -0.0422012524     3     4    10     3
 -0.0076345546     3     4    10     5
 0.0000000207     3     4    10    10
 0.0910287946     3     5     1     1
 0.0000000002     3     5     1     2
 0.0189332667     3     5     1     3
 0.0000000004     3     5     1     4
 0.0000000003     3     5     2     1
 0.0914407900     3     5     2     2
 -0.0000000005     3     5     2     3
 -0.0050225309     3     5     2     4
 -0.0015020233     3     5     2    10
 0.0000000007     3     5     4     1
 -0.0200320513     3     5     4     2
 -0.0000000003     3     5     4     3
 0.1031377721     3     5     4     4
 0.0280461265     3     5     4    10
 -0.0239369785     3     5     5     1
 0.0000000007     3     5     5     2
 -0.4807711368     3     5     5     3
 0.0000000008     3     5     5     4
 0.0000000010     3     5     5    10
 0.0678882145     3     5     6     6
 -0.0000000002     3     5     6     8
 0.0678882145     3     5     7     7
 -0.0000000001     3     5     7     8
 -0.0000000002     3     5     8     6
 -0.0000000002     3     5     8     7
 0.0435221912     3     5     8     8
 -0.0000000003     3     5     9     6
 0.0000000002     3     5     9     7
 0.0435221912     3     5     9     9
 0.0000000006     3     5    10     1
 -0.0021611277     3     5    10     2
 -0.0000000024     3     5    10     3
 0.0076345546     3     5    10     4
 0.0006862085     3     5    10    10
 0.0033283218     3     6     2     8
 0.0034249207     3     6     2     9
 0.0159889765     3     6     4     8
 0.0164530292     3     6     4     9
 0.0000000001     3     6     5     8
 -0.0175940511     3     6     6     1
 -0.5079805650     3     6     6     3
 -0.0000000001     3     6     6     4
 -0.0678882145     3     6     6     5
 0.0000000052     3     6     6    10
 0.0000000001     3     6     7     3
 -0.0000000004     3     6     7    10
 0.0000000001     3     6     8     1
 0.0139743916     3     6     8     2