&FCI NORB= 10,NELEC= 14,MS2=0,
 ORBSYM=1,1,1,1,1,1,1,1,1,1
 ISYM=1,
&END
 0.3113047142     1     1     2     2
 -0.0000000017     1     1     2     3
 0.0015154372     1     1     2     4
 -0.0000000076     1     1     2     5
 0.0055194892     1     1     2    10
 -0.0000000017     1     1     3     2
 0.6208360734     1     1     3     3
 -0.0000006314     1     1     3     4
 0.0367478105     1     1     3     5
 0.0000002470     1     1     3    10
 0.0015154372     1     1     4     2
 -0.0000006314     1     1     4     3
 0.6043127355     1     1     4     4
 0.0000003683     1     1     4     5
 -0.0620599680     1     1     4    10
 -0.0000000076     1     1     5     2
 0.0367478105     1     1     5     3
 0.0000003683     1     1     5     4
 0.6158895643     1     1     5     5
 0.0000004700     1     1     5    10
 0.5911203231     1     1     6     6
 -0.0000000001     1     1     6     7
 -0.0000005525     1     1     6     8
 0.0000001800     1     1     6     9
 -0.0000000001     1     1     7     6
 0.5911203228     1     1     7     7
 -0.0000001801     1     1     7     8
 -0.0000005526     1     1     7     9
 -0.0000005525     1     1     8     6
 -0.0000001801     1     1     8     7
 0.5772896849     1     1     8     8
 0.0000001800     1     1     9     6
 -0.0000005526     1     1     9     7
 0.5772896850     1     1     9     9
 0.0055194892     1     1    10     2
 0.0000002470     1     1    10     3
 -0.0620599680     1     1    10     4
 0.0000004700     1     1    10     5
 0.5671839617     1     1    10    10
 -0.3113047142     1     2     2     1
 0.0014814099     1     2     2     3
 0.0000000017     1     2     2     4
 0.0066366157     1     2     2     5
 0.0000000063     1     2     2    10
 0.0000000017     1     2     3     1
 -0.0000000008     1     2     3     3
 0.2780143602     1     2     3     4
 -0.0000000002     1     2     3     5
 -0.1087188376     1     2     3    10
 -0.0015154372     1     2     4     1
 0.2780390077     1     2     4     3
 0.0000000003     1     2     4     4
 -0.1622659644     1     2     4     5
 0.0000000001     1     2     4    10
 0.0000000076     1     2     5     1
 -0.0000000002     1     2     5     3
 -0.1623367995     1     2     5     4
 -0.0000000005     1     2     5     5
 -0.2071404445     1     2     5    10
 -0.0000000005     1     2     6     6
 0.2433821526     1     2     6     8
 -0.0793215252     1     2     6     9
 -0.0000000004     1     2     7     7
 0.0793215249     1     2     7     8
 0.2433821523     1     2     7     9
 0.2432593167     1     2     8     6
 0.0792814909     1     2     8     7
 0.0000000002     1     2     8     8
 -0.0792814912     1     2     9     6
 0.2432593164     1     2     9     7
 0.0000000002     1     2     9     9
 -0.0055194892     1     2    10     1
 -0.1086618198     1     2    10     3
 0.0000000001     1     2    10     4
 -0.2069129588     1     2    10     5
 0.0000000004     1     2    10    10
 0.0000000017     1     3     2     1
 -0.0014814099     1     3     2     2
 -0.0000240519     1     3     2     4
 -0.0000000001     1     3     2     5
 -0.0000560403     1     3     2    10
 -0.6208360734     1     3     3     1
 0.0000000008     1     3     3     2
 0.0000000021     1     3     3     4
 0.0078554682     1     3     3     5
 0.0000000082     1     3     3    10
 0.0000006314     1     3     4     1
 -0.2780390077     1     3     4     2
 0.0022058397     1     3     4     4
 0.0000000085     1     3     4     5
 0.0058722724     1     3     4    10
 -0.0367478105     1     3     5     1
 0.0000000002     1     3     5     2
 0.0000000097     1     3     5     4
 0.0213360995     1     3     5     5
 0.0000000201     1     3     5    10
 0.0187339856     1     3     6     6
 -0.0000000202     1     3     6     8
 0.0000000066     1     3     6     9
 0.0187339856     1     3     7     7
 -0.0000000066     1     3     7     8
 -0.0000000202     1     3     7     9
 -0.0000000168     1     3     8     6
 -0.0000000054     1     3     8     7
 0.0167920638     1     3     8     8
 0.0000000055     1     3     9     6
 -0.0000000167     1     3     9     7
 0.0167920639     1     3     9     9
 -0.0000002470     1     3    10     1
 0.1086618198     1     3    10     2
 0.0054812517     1     3    10     4
 0.0000000157     1     3    10     5
 0.0125562975     1     3    10    10
 -0.0015154372     1     4     2     1
 -0.0000000017     1     4     2     2
 0.0000240519     1     4     2     3
 0.0000699137     1     4     2     5
 0.0000006314     1     4     3     1
 -0.2780143602     1     4     3     2
 -0.0000000021     1     4     3     3
 -0.0000000012     1     4     3     5
 -0.0000337920     1     4     3    10
 -0.6043127355     1     4     4     1
 -0.0000000003     1     4     4     2
 -0.0022058397     1     4     4     3
 -0.0021665180     1     4     4     5
 -0.0000000030     1     4     4    10
 -0.0000003683     1     4     5     1
 0.1623367995     1     4     5     2
 -0.0000000097     1     4     5     3
 -0.0000000230     1     4     5     5
 -0.0179359395     1     4     5    10
 -0.0000000222     1     4     6     6
 0.0158903708     1     4     6     8
 -0.0051788861     1     4     6     9
 -0.0000000220     1     4     7     7
 0.0051788861     1     4     7     8
 0.0158903708     1     4     7     9
 0.0154006344     1     4     8     6
 0.0050192744     1     4     8     7
 -0.0000000220     1     4     8     8
 0.0000000001     1     4     8     9
 -0.0050192744     1     4     9     6
 0.0154006345     1     4     9     7
 0.0000000001     1     4     9     8
 -0.0000000219     1     4     9     9
 0.0620599680     1     4    10     1
 -0.0000000001     1     4    10     2
 -0.0054812517     1     4    10     3
 -0.0140267548     1     4    10     5
 -0.0000000217     1     4    10    10
 0.0000000076     1     5     2     1
 -0.0066366157     1     5     2     2
 0.0000000001     1     5     2     3
 -0.0000699137     1     5     2     4
 -0.0002343855     1     5     2    10
 -0.0367478105     1     5     3     1
 0.0000000002     1     5     3     2
 -0.0078554682     1     5     3     3
 0.0000000012     1     5     3     4
 0.0000000034     1     5     3    10
 -0.0000003683     1     5     4     1
 0.1622659644     1     5     4     2
 -0.0000000085     1     5     4     3
 0.0021665180     1     5     4     4
 -0.0026575908     1     5     4    10
 -0.6158895643     1     5     5     1
 0.0000000005     1     5     5     2
 -0.0213360995     1     5     5     3
 0.0000000230     1     5     5     4
 -0.0000000044     1     5     5    10
 -0.0073650389     1     5     6     6
 0.0000000008     1     5     6     8
 -0.0000000002     1     5     6     9
 -0.0073650388     1     5     7     7
 0.0000000002     1     5     7     8
 0.0000000007     1     5     7     9
 0.0000000018     1     5     8     6
 0.0000000005     1     5     8     7
 -0.0059765109     1     5     8     8
 -0.0000000001     1     5     8     9
 -0.0000000006     1     5     9     6
 0.0000000017     1     5     9     7
 -0.0000000001     1     5     9     8
 -0.0059765110     1     5     9     9
 -0.0000004700     1     5    10     1
 0.2069129588     1     5    10     2
 -0.0000000157     1     5    10     3
 0.0140267548     1     5    10     4
 -0.0124558159     1     5    10    10
 0.0001178826     1     6     2     8
 -0.0000384195     1     6     2     9
 -0.0000000024     1     6     3     8
 0.0000000008     1     6     3     9
 -0.0006061211     1     6     4     8
 0.0001975430     1     6     4     9
 -0.0000000011     1     6     5     8
 0.0000000004     1     6     5     9
 -0.5911203231     1     6     6     1
 0.0000000005     1     6     6     2
 -0.0187339856     1     6     6     3
 0.0000000222     1     6     6     4
 0.0073650389     1     6     6     5
 -0.0000000043     1     6     6    10
 0.0000000001     1     6     7     1
 0.0000005525     1     6     8     1
 -0.2432593167     1     6     8     2
 0.0000000168     1     6     8     3
 -0.0154006344     1     6     8     4
 -0.0000000018     1     6     8     5
 0.0085999277     1     6     8    10
 -0.0000001800     1     6     9     1
 0.0792814912     1     6     9     2
 -0.0000000055     1     6     9     3
 0.0050192744     1     6     9     4
 0.0000000006     1     6     9     5
 -0.0028028324     1     6     9    10
 0.0001785318     1     6    10     8
 -0.0000581859     1     6    10     9
 0.0000384195     1     7     2     8
 0.0001178826     1     7     2     9
 -0.0000000007     1     7     3     8
 -0.0000000023     1     7     3     9
 -0.0001975430     1     7     4     8
 -0.0006061211     1     7     4     9
 -0.0000000004     1     7     5     8
 -0.0000000011     1     7     5     9
 0.0000000001     1     7     6     1
 -0.5911203228     1     7     7     1
 0.0000000004     1     7     7     2
 -0.0187339856     1     7     7     3
 0.0000000220     1     7     7     4
 0.0073650388     1     7     7     5
 -0.0000000042     1     7     7    10
 0.0000001801     1     7     8     1
 -0.0792814909     1     7     8     2
 0.0000000054     1     7     8     3
 -0.0050192744     1     7     8     4
 -0.0000000005     1     7     8     5
 0.0028028323     1     7     8    10
 0.0000005526     1     7     9     1
 -0.2432593164     1     7     9     2
 0.0000000167     1     7     9     3
 -0.0154006345     1     7     9     4
 -0.0000000017     1     7     9     5
 0.0085999277     1     7     9    10
 0.0000581859     1     7    10     8
 0.0001785318     1     7    10     9
 -0.0001178826     1     8     2     6
 -0.0000384195     1     8     2     7
 0.0000000024     1     8     3     6
 0.0000000007     1     8     3     7
 0.0006061211     1     8     4     6
 0.0001975430     1     8     4     7
 0.0000000011     1     8     5     6
 0.0000000004     1     8     5     7
 0.0000005525     1     8     6     1
 -0.2433821526     1     8     6     2
 0.0000000202     1     8     6     3
 -0.0158903708     1     8     6     4
 -0.0000000008     1     8     6     5
 0.0086577466     1     8     6    10
 0.0000001801     1     8     7     1
 -0.0793215249     1     8     7     2
 0.0000000066     1     8     7     3
 -0.0051788861     1     8     7     4
 -0.0000000002     1     8     7     5
 0.0028216764     1     8     7    10
 -0.5772896849     1     8     8     1
 -0.0000000002     1     8     8     2
 -0.0167920638     1     8     8     3
 0.0000000220     1     8     8     4
 0.0059765109     1     8     8     5
 -0.0000000069     1     8     8    10
 -0.0000000001     1     8     9     4
 0.0000000001     1     8     9     5
 0.0000000003     1     8     9    10
 -0.0001785318     1     8    10     6
 -0.0000581859     1     8    10     7
 0.0000384195     1     9     2     6
 -0.0001178826     1     9     2     7
 -0.0000000008     1     9     3     6
 0.0000000023     1     9     3     7
 -0.0001975430     1     9     4     6
 0.0006061211     1     9     4     7
 -0.0000000004     1     9     5     6
 0.0000000011     1     9     5     7
 -0.0000001800     1     9     6     1
 0.0793215252     1     9     6     2
 -0.0000000066     1     9     6     3
 0.0051788861     1     9     6     4
 0.0000000002     1     9     6     5
 -0.0028216764     1     9     6    10
 0.0000005526     1     9     7     1
 -0.2433821523     1     9     7     2
 0.0000000202     1     9     7     3
 -0.0158903708     1     9     7     4
 -0.0000000007     1     9     7     5
 0.0086577466     1     9     7    10
 -0.0000000001     1     9     8     4
 0.0000000001     1     9     8     5
 0.0000000003     1     9     8    10
 -0.5772896850     1     9     9     1
 -0.0000000002     1     9     9     2
 -0.0167920639     1     9     9     3
 0.0000000219     1     9     9     4
 0.0059765110     1     9     9     5
 -0.0000000067     1     9     9    10
 0.0000581859     1     9    10     6
 -0.0001785318     1     9    10     7
 -0.0055194892     1    10     2     1
 -0.0000000063     1    10     2     2
 0.0000560403     1    10     2     3
 0.0002343855     1    10     2     5
 -0.0000002470     1    10     3     1
 0.1087188376     1    10     3     2
 -0.0000000082     1    10     3     3
 0.0000337920     1    10     3     4
 -0.0000000034     1    10     3     5
 0.0620599680     1    10     4     1
 -0.0000000001     1    10     4     2
 -0.0058722724     1    10     4     3
 0.0000000030     1    10     4     4
 0.0026575908     1    10     4     5
 -0.0000004700     1    10     5     1
 0.2071404445     1    10     5     2
 -0.0000000201     1    10     5     3
 0.0179359395     1    10     5     4
 0.0000000044     1    10     5     5
 0.0000000043     1    10     6     6
 -0.0086577466     1    10     6     8
 0.0028216764     1    10     6     9
 0.0000000042     1    10     7     7
 -0.0028216764     1    10     7     8
 -0.0086577466     1    10     7     9
 -0.0085999277     1    10     8     6
 -0.0028028323     1    10     8     7
 0.0000000069     1    10     8     8
 -0.0000000003     1    10     8     9
 0.0028028324     1    10     9     6
 -0.0085999277     1    10     9     7
 -0.0000000003     1    10     9     8
 0.0000000067     1    10     9     9
 -0.5671839617     1    10    10     1
 -0.0000000004     1    10    10     2
 -0.0125562975     1    10    10     3
 0.0000000217     1    10    10     4
 0.0124558159     1    10    10     5
 -0.3113047142     2     1     1     2
 0.0000000017     2     1     1     3
 -0.0015154372     2     1     1     4
 0.0000000076     2     1     1     5
 -0.0055194892     2     1     1    10
 0.0014814099     2     1     3     2
 -0.0000000008     2     1     3     3
 0.2780390077     2     1     3     4
 -0.0000000002     2     1     3     5
 -0.1086618198     2     1     3    10
 0.0000000017     2     1     4     2
 0.2780143602     2     1     4     3
 0.0000000003     2     1     4     4
 -0.1623367995     2     1     4     5
 0.0000000001     2     1     4    10
 0.0066366157     2     1     5     2
 -0.0000000002     2     1     5     3
 -0.1622659644     2     1     5     4
 -0.0000000005     2     1     5     5
 -0.2069129588     2     1     5    10
 -0.0000000005     2     1     6     6
 0.2432593167     2     1     6     8
 -0.0792814912     2     1     6     9
 -0.0000000004     2     1     7     7
 0.0792814909     2     1     7     8
 0.2432593164     2     1     7     9
 0.2433821526     2     1     8     6
 0.0793215249     2     1     8     7
 0.0000000002     2     1     8     8
 -0.0793215252     2     1     9     6
 0.2433821523     2     1     9     7
 0.0000000002     2     1     9     9
 0.0000000063     2     1    10     2
 -0.1087188376     2     1    10     3
 0.0000000001     2     1    10     4
 -0.2071404445     2     1    10     5
 0.0000000004     2     1    10    10
 0.3113047142     2     2     1     1
 -0.0014814099     2     2     1     3
 -0.0000000017     2     2     1     4
 -0.0066366157     2     2     1     5
 -0.0000000063     2     2     1    10
 -0.0014814099     2     2     3     1
 0.6208235576     2     2     3     3
 0.0000006310     2     2     3     4
 0.0367863720     2     2     3     5
 -0.0000002465     2     2     3    10
 -0.0000000017     2     2     4     1
 0.0000006310     2     2     4     3
 0.6043101588     2     2     4     4
 -0.0000003687     2     2     4     5
 -0.0620949162     2     2     4    10
 -0.0066366157     2     2     5     1
 0.0367863720     2     2     5     3
 -0.0000003687     2     2     5     4
 0.6161742655     2     2     5     5
 -0.0000004701     2     2     5    10
 0.5912578171     2     2     6     6
 -0.0000000001     2     2     6     7
 0.0000005524     2     2     6     8
 -0.0000001801     2     2     6     9
 -0.0000000001     2     2     7     6
 0.5912578169     2     2     7     7
 0.0000001800     2     2     7     8
 0.0000005523     2     2     7     9
 0.0000005524     2     2     8     6
 0.0000001800     2     2     8     7
 0.5771949381     2     2     8     8
 -0.0000001801     2     2     9     6
 0.0000005523     2     2     9     7
 0.5771949381     2     2     9     9
 -0.0000000063     2     2    10     1
 -0.0000002465     2     2    10     3
 -0.0620949162     2     2    10     4
 -0.0000004701     2     2    10     5
 0.5669871912     2     2    10    10
 -0.0000000017     2     3     1     1
 0.0014814099     2     3     1     2
 0.0000240519     2     3     1     4
 0.0000000001     2     3     1     5
 0.0000560403     2     3     1    10
 0.0000000008     2     3     3     1
 -0.6208235576     2     3     3     2
 -0.0018215963     2     3     3     4
 0.0000000089     2     3     3     5
 -0.0073154587     2     3     3    10
 -0.2780143602     2     3     4     1
 -0.0000006310     2     3     4     2
 0.0000000025     2     3     4     4
 -0.0074417659     2     3     4     5
 0.0000000066     2     3     4    10
 0.0000000002     2     3     5     1
 -0.0367863720     2     3     5     2
 -0.0084350032     2     3     5     4
 0.0000000240     2     3     5     5
 -0.0177113524     2     3     5    10
 0.0000000211     2     3     6     6
 0.0177830941     2     3     6     8
 -0.0057957501     2     3     6     9
 0.0000000212     2     3     7     7
 0.0057957501     2     3     7     8
 0.0177830940     2     3     7     9
 0.0147903658     2     3     8     6
 0.0048203797     2     3     8     7
 0.0000000190     2     3     8     8
 -0.0048203797     2     3     9     6
 0.0147903658     2     3     9     7
 0.0000000190     2     3     9     9
 0.1087188376     2     3    10     1
 0.0000002465     2     3    10     2
 0.0000000062     2     3    10     4
 -0.0137562521     2     3    10     5
 0.0000000132     2     3    10    10
 0.0015154372     2     4     1     1
 0.0000000017     2     4     1     2
 -0.0000240519     2     4     1     3
 -0.0000699137     2     4     1     5
 -0.2780390077     2     4     3     1
 -0.0000006310     2     4     3     2
 0.0018215963     2     4     3     3
 0.0010234420     2     4     3     5
 -0.0000000001     2     4     3    10
 -0.0000000003     2     4     4     1
 -0.6043101588     2     4     4     2
 -0.0000000025     2     4     4     3
 -0.0000000024     2     4     4     5
 0.0026020160     2     4     4    10
 0.1622659644     2     4     5     1
 0.0000003687     2     4     5     2
 0.0084350032     2     4     5     3
 0.0200491133     2     4     5     5
 -0.0000000203     2     4     5    10
 0.0195029788     2     4     6     6
 0.0000000180     2     4     6     8
 -0.0000000059     2     4     6     9
 0.0195029787     2     4     7     7
 0.0000000059     2     4     7     8
 0.0000000181     2     4     7     9
 0.0000000174     2     4     8     6
 0.0000000058     2     4     8     7
 0.0193094492     2     4     8     8
 -0.0000000056     2     4     9     6
 0.0000000175     2     4     9     7
 0.0193094493     2     4     9     9
 -0.0000000001     2     4    10     1
 0.0620949162     2     4    10     2
 -0.0000000062     2     4    10     3
 -0.0000000160     2     4    10     5
 0.0178522859     2     4    10    10
 -0.0000000076     2     5     1     1
 0.0066366157     2     5     1     2
 -0.0000000001     2     5     1     3
 0.0000699137     2     5     1     4
 0.0002343855     2     5     1    10
 0.0000000002     2     5     3     1
 -0.0367863720     2     5     3     2
 -0.0000000089     2     5     3     3
 -0.0010234420     2     5     3     4
 -0.0029904959     2     5     3    10
 0.1623367995     2     5     4     1
 0.0000003687     2     5     4     2
 0.0074417659     2     5     4     3
 0.0000000024     2     5     4     4
 -0.0000000030     2     5     4    10
 0.0000000005     2     5     5     1
 -0.6161742655     2     5     5     2
 -0.0000000240     2     5     5     3
 -0.0200491133     2     5     5     4
 0.0039214777     2     5     5    10
 -0.0000000084     2     5     6     6
 -0.0007200961     2     5     6     8
 0.0002346890     2     5     6     9
 -0.0000000084     2     5     7     7
 -0.0002346891     2     5     7     8
 -0.0007200961     2     5     7     9
 -0.0015921910     2     5     8     6
 -0.0005189165     2     5     8     7
 -0.0000000068     2     5     8     8
 0.0005189165     2     5     9     6
 -0.0015921911     2     5     9     7
 -0.0000000068     2     5     9     9
 0.2071404445     2     5    10     1
 0.0000004701     2     5    10     2
 0.0137562521     2     5    10     3
 0.0000000160     2     5    10     4
 -0.0000000133     2     5    10    10
 -0.0001178826     2     6     1     8
 0.0000384195     2     6     1     9
 0.0020641403     2     6     3     8
 -0.0006727311     2     6     3     9
 -0.0000000006     2     6     4     8
 0.0000000002     2     6     4     9
 0.0009887770     2     6     5     8
 -0.0003222557     2     6     5     9
 0.0000000005     2     6     6     1
 -0.5912578171     2     6     6     2
 -0.0000000211     2     6     6     3
 -0.0195029788     2     6     6     4
 0.0000000084     2     6     6     5
 0.0037341914     2     6     6    10
 0.0000000001     2     6     7     2
 -0.2433821526     2     6     8     1
 -0.0000005524     2     6     8     2
 -0.0147903658     2     6     8     3
 -0.0000000174     2     6     8     4
 0.0015921910     2     6     8     5
 0.0000000094     2     6     8    10
 0.0793215252     2     6     9     1
 0.0000001801     2     6     9     2
 0.0048203797     2     6     9     3
 0.0000000056     2     6     9     4
 -0.0005189165     2     6     9     5
 -0.0000000030     2     6     9    10
 0.0000000002     2     6    10     9
 -0.0000384195     2     7     1     8
 -0.0001178826     2     7     1     9
 0.0006727311     2     7     3     8
 0.0020641403     2     7     3     9
 -0.0000000003     2     7     4     8
 -0.0000000007     2     7     4     9
 0.0003222557     2     7     5     8
 0.0009887770     2     7     5     9
 0.0000000001     2     7     6     2
 0.0000000004     2     7     7     1
 -0.5912578169     2     7     7     2
 -0.0000000212     2     7     7     3
 -0.0195029787     2     7     7     4
 0.0000000084     2     7     7     5
 0.0037341915     2     7     7    10
 -0.0793215249     2     7     8     1
 -0.0000001800     2     7     8     2
 -0.0048203797     2     7     8     3
 -0.0000000058     2     7     8     4
 0.0005189165     2     7     8     5
 0.0000000034     2     7     8    10
 -0.2433821523     2     7     9     1
 -0.0000005523     2     7     9     2
 -0.0147903658     2     7     9     3
 -0.0000000175     2     7     9     4
 0.0015921911     2     7     9     5
 0.0000000100     2     7     9    10
 0.0000000002     2     7    10     8
 0.0000000005     2     7    10     9
 0.0001178826     2     8     1     6
 0.0000384195     2     8     1     7
 -0.0020641403     2     8     3     6
 -0.0006727311     2     8     3     7
 0.0000000006     2     8     4     6
 0.0000000003     2     8     4     7
 -0.0009887770     2     8     5     6
 -0.0003222557     2     8     5     7
 -0.2432593167     2     8     6     1
 -0.0000005524     2     8     6     2
 -0.0177830941     2     8     6     3
 -0.0000000180     2     8     6     4
 0.0007200961     2     8     6     5
 0.0000000098     2     8     6    10
 -0.0792814909     2     8     7     1
 -0.0000001800     2     8     7     2
 -0.0057957501     2     8     7     3
 -0.0000000059     2     8     7     4
 0.0002346891     2     8     7     5
 0.0000000031     2     8     7    10
 -0.0000000002     2     8     8     1
 -0.5771949381     2     8     8     2
 -0.0000000190     2     8     8     3
 -0.0193094492     2     8     8     4
 0.0000000068     2     8     8     5
 0.0059809885     2     8     8    10
 -0.0000000002     2     8    10     7
 -0.0000384195     2     9     1     6
 0.0001178826     2     9     1     7
 0.0006727311     2     9     3     6
 -0.0020641403     2     9     3     7
 -0.0000000002     2     9     4     6
 0.0000000007     2     9     4     7
 0.0003222557     2     9     5     6
 -0.0009887770     2     9     5     7
 0.0792814912     2     9     6     1
 0.0000001801     2     9     6     2
 0.0057957501     2     9     6     3
 0.0000000059     2     9     6     4
 -0.0002346890     2     9     6     5
 -0.0000000032     2     9     6    10
 -0.2432593164     2     9     7     1
 -0.0000005523     2     9     7     2
 -0.0177830940     2     9     7     3
 -0.0000000181     2     9     7     4
 0.0007200961     2     9     7     5
 0.0000000098     2     9     7    10
 -0.0000000002     2     9     9     1
 -0.5771949381     2     9     9     2
 -0.0000000190     2     9     9     3
 -0.0193094493     2     9     9     4
 0.0000000068     2     9     9     5
 0.0059809885     2     9     9    10
 -0.0000000002     2     9    10     6
 -0.0000000005     2     9    10     7
 0.0055194892     2    10     1     1
 0.0000000063     2    10     1     2
 -0.0000560403     2    10     1     3
 -0.0002343855     2    10     1     5
 0.1086618198     2    10     3     1
 0.0000002465     2    10     3     2
 0.0073154587     2    10     3     3
 0.0000000001     2    10     3     4
 0.0029904959     2    10     3     5
 -0.0000000001     2    10     4     1
 0.0620949162     2    10     4     2
 -0.0000000066     2    10     4     3
 -0.0026020160     2    10     4     4
 0.0000000030     2    10     4     5
 0.2069129588     2    10     5     1
 0.0000004701     2    10     5     2
 0.0177113524     2    10     5     3
 0.0000000203     2    10     5     4
 -0.0039214777     2    10     5     5
 -0.0037341914     2    10     6     6
 -0.0000000098     2    10     6     8
 0.0000000032     2    10     6     9
 -0.0037341915     2    10     7     7
 -0.0000000031     2    10     7     8
 -0.0000000098     2    10     7     9
 -0.0000000094     2    10     8     6
 -0.0000000034     2    10     8     7
 -0.0059809885     2    10     8     8
 0.0000000030     2    10     9     6
 -0.0000000100     2    10     9     7
 -0.0059809885     2    10     9     9
 -0.0000000004     2    10    10     1
 -0.5669871912     2    10    10     2
 -0.0000000132     2    10    10     3
 -0.0178522859     2    10    10     4
 0.0000000133     2    10    10     5
 0.0000000017     3     1     1     2
 -0.6208360734     3     1     1     3
 0.0000006314     3     1     1     4
 -0.0367478105     3     1     1     5
 -0.0000002470     3     1     1    10
 -0.0014814099     3     1     2     2
 0.0000000008     3     1     2     3
 -0.2780390077     3     1     2     4
 0.0000000002     3     1     2     5
 0.1086618198     3     1     2    10
 -0.0000240519     3     1     4     2
 0.0000000021     3     1     4     3
 0.0022058397     3     1     4     4
 0.0000000097     3     1     4     5
 0.0054812517     3     1     4    10
 -0.0000000001     3     1     5     2
 0.0078554682     3     1     5     3
 0.0000000085     3     1     5     4
 0.0213360995     3     1     5     5
 0.0000000157     3     1     5    10
 0.0187339856     3     1     6     6
 -0.0000000168     3     1     6     8
 0.0000000055     3     1     6     9
 0.0187339856     3     1     7     7
 -0.0000000054     3     1     7     8
 -0.0000000167     3     1     7     9
 -0.0000000202     3     1     8     6
 -0.0000000066     3     1     8     7
 0.0167920638     3     1     8     8
 0.0000000066     3     1     9     6
 -0.0000000202     3     1     9     7
 0.0167920639     3     1     9     9
 -0.0000560403     3     1    10     2
 0.0000000082     3     1    10     3
 0.0058722724     3     1    10     4
 0.0000000201     3     1    10     5
 0.0125562975     3     1    10    10
 -0.0000000017     3     2     1     1
 0.0000000008     3     2     1     3
 -0.2780143602     3     2     1     4
 0.0000000002     3     2     1     5
 0.1087188376     3     2     1    10
 0.0014814099     3     2     2     1
 -0.6208235576     3     2     2     3
 -0.0000006310     3     2     2     4
 -0.0367863720     3     2     2     5
 0.0000002465     3     2     2    10
 0.0000240519     3     2     4     1
 -0.0018215963     3     2     4     3
 0.0000000025     3     2     4     4
 -0.0084350032     3     2     4     5
 0.0000000062     3     2     4    10
 0.0000000001     3     2     5     1
 0.0000000089     3     2     5     3
 -0.0074417659     3     2     5     4
 0.0000000240     3     2     5     5
 -0.0137562521     3     2     5    10
 0.0000000211     3     2     6     6
 0.0147903658     3     2     6     8
 -0.0048203797     3     2     6     9
 0.0000000212     3     2     7     7
 0.0048203797     3     2     7     8
 0.0147903658     3     2     7     9
 0.0177830941     3     2     8     6
 0.0057957501     3     2     8     7
 0.0000000190     3     2     8     8
 -0.0057957501     3     2     9     6
 0.0177830940     3     2     9     7
 0.0000000190     3     2     9     9
 0.0000560403     3     2    10     1
 -0.0073154587     3     2    10     3
 0.0000000066     3     2    10     4
 -0.0177113524     3     2    10     5
 0.0000000132     3     2    10    10
 0.6208360734     3     3     1     1
 -0.0000000008     3     3     1     2
 -0.0000000021     3     3     1     4
 -0.0078554682     3     3     1     5
 -0.0000000082     3     3     1    10
 -0.0000000008     3     3     2     1
 0.6208235576     3     3     2     2
 0.0018215963     3     3     2     4
 -0.0000000089     3     3     2     5
 0.0073154587     3     3     2    10
 -0.0000000021     3     3     4     1
 0.0018215963     3     3     4     2
 0.3168154049     3     3     4     4
 -0.0139127181     3     3     4    10
 -0.0078554682     3     3     5     1
 -0.0000000089     3     3     5     2
 0.4151172877     3     3     5     5
 -0.0000000001     3     3     5    10
 0.4154288758     3     3     6     6
 -0.0000000004     3     3     6     8
 0.0000000001     3     3     6     9