&FCI NORB= 10,NELEC= 14,MS2=0,
 ORBSYM=1,1,1,1,1,1,1,1,1,1
 ISYM=1,
&END
 0.3780673957     1     1     2     2
 0.0033137657     1     1     2     4
 -0.0028283921     1     1     2    10
 0.6866121691     1     1     3     3
 -0.0000000008     1     1     3     4
 0.0669684316     1     1     3     5
 -0.0000000001     1     1     3    10
 0.0033137657     1     1     4     2
 -0.0000000008     1     1     4     3
 0.6196228954     1     1     4     4
 0.0000000006     1     1     4     5
 0.0806900420     1     1     4    10
 0.0669684316     1     1     5     3
 0.0000000006     1     1     5     4
 0.6476952693     1     1     5     5
 0.0000000007     1     1     5    10
 0.6235050173     1     1     6     6
 -0.0000000001     1     1     6     7
 0.0000000005     1     1     6     9
 -0.0000000001     1     1     7     6
 0.6235050175     1     1     7     7
 0.0000000008     1     1     7     8
 -0.0000000004     1     1     7     9
 0.0000000008     1     1     8     7
 0.5847524146     1     1     8     8
 0.0000000005     1     1     9     6
 -0.0000000004     1     1     9     7
 0.5847524146     1     1     9     9
 -0.0028283921     1     1    10     2
 -0.0000000001     1     1    10     3
 0.0806900420     1     1    10     4
 0.0000000007     1     1    10     5
 0.3355718304     1     1    10    10
 -0.3780673957     1     2     2     1
 0.0038522022     1     2     2     3
 0.0099274262     1     2     2     5
 -0.0000000001     1     2     3     3
 0.2187311498     1     2     3     4
 -0.0000000003     1     2     3     5
 0.0901953347     1     2     3    10
 -0.0033137657     1     2     4     1
 0.2188068128     1     2     4     3
 -0.0000000002     1     2     4     4
 -0.2078170032     1     2     4     5
 0.0000000002     1     2     4    10
 -0.0000000004     1     2     5     3
 -0.2079931478     1     2     5     4
 -0.0000000009     1     2     5     5
 0.0559287691     1     2     5    10
 -0.0000000001     1     2     6     6
 -0.0609052502     1     2     6     8
 -0.2025214609     1     2     6     9
 -0.2025214608     1     2     7     8
 0.0609052501     1     2     7     9
 -0.0608354273     1     2     8     6
 -0.2022892864     1     2     8     7
 -0.0000000001     1     2     8     8
 0.0000000001     1     2     8     9
 -0.2022892865     1     2     9     6
 0.0608354271     1     2     9     7
 0.0000000001     1     2     9     8
 -0.0000000001     1     2     9     9
 0.0028283921     1     2    10     1
 0.0901310873     1     2    10     3
 0.0000000002     1     2    10     4
 0.0557882778     1     2    10     5
 0.0000000014     1     2    10    10
 -0.0038522022     1     3     2     2
 -0.0000758707     1     3     2     4
 0.0000000001     1     3     2     5
 0.0000595203     1     3     2    10
 -0.6866121691     1     3     3     1
 0.0000000001     1     3     3     2
 -0.0000000001     1     3     3     4
 0.0135690342     1     3     3     5
 0.0000000005     1     3     3    10
 0.0000000008     1     3     4     1
 -0.2188068128     1     3     4     2
 0.0047400489     1     3     4     4
 -0.0000000002     1     3     4     5
 -0.0027345341     1     3     4    10
 -0.0669684316     1     3     5     1
 0.0000000004     1     3     5     2
 -0.0000000004     1     3     5     4
 0.0227996585     1     3     5     5
 0.0000000009     1     3     5    10
 0.0178351736     1     3     6     6
 -0.0000000001     1     3     6     9
 0.0178351736     1     3     7     7
 0.0151194549     1     3     8     8
 -0.0000000001     1     3     9     6
 0.0151194549     1     3     9     9
 0.0000000001     1     3    10     1
 -0.0901310873     1     3    10     2
 -0.0031629324     1     3    10     4
 0.0000000013     1     3    10     5
 0.0012089547     1     3    10    10
 -0.0033137657     1     4     2     1
 0.0000758707     1     4     2     3
 0.0001765864     1     4     2     5
 0.0000000008     1     4     3     1
 -0.2187311498     1     4     3     2
 0.0000000001     1     4     3     3
 0.0000000002     1     4     3     5
 0.0006456217     1     4     3    10
 -0.6196228954     1     4     4     1
 0.0000000002     1     4     4     2
 -0.0047400489     1     4     4     3
 -0.0028269462     1     4     4     5
 -0.0000000006     1     4     5     1
 0.2079931478     1     4     5     2
 0.0000000004     1     4     5     3
 0.0000000004     1     4     5     5
 0.0077297929     1     4     5    10
 -0.0000000001     1     4     6     6
 -0.0040334574     1     4     6     8
 -0.0134120075     1     4     6     9
 -0.0000000001     1     4     7     7
 -0.0134120075     1     4     7     8
 0.0040334573     1     4     7     9
 -0.0040476721     1     4     8     6
 -0.0134592742     1     4     8     7
 -0.0134592743     1     4     9     6
 0.0040476721     1     4     9     7
 -0.0806900420     1     4    10     1
 -0.0000000002     1     4    10     2
 0.0031629324     1     4    10     3
 0.0049075641     1     4    10     5
 -0.0000000147     1     4    10    10
 -0.0099274262     1     5     2     2
 -0.0000000001     1     5     2     3
 -0.0001765864     1     5     2     4
 0.0001491097     1     5     2    10
 -0.0669684316     1     5     3     1
 0.0000000003     1     5     3     2
 -0.0135690342     1     5     3     3
 -0.0000000002     1     5     3     4
 -0.0000000005     1     5     3    10
 -0.0000000006     1     5     4     1
 0.2078170032     1     5     4     2
 0.0000000002     1     5     4     3
 0.0028269462     1     5     4     4
 0.0022685338     1     5     4    10
 -0.6476952693     1     5     5     1
 0.0000000009     1     5     5     2
 -0.0227996585     1     5     5     3
 -0.0000000004     1     5     5     4
 -0.0000000021     1     5     5    10
 -0.0107316266     1     5     6     6
 0.0000000001     1     5     6     8
 0.0000000002     1     5     6     9
 -0.0107316265     1     5     7     7
 0.0000000002     1     5     7     8
 0.0000000002     1     5     8     7
 -0.0074937947     1     5     8     8
 0.0000000001     1     5     8     9
 0.0000000002     1     5     9     6
 -0.0000000001     1     5     9     7
 0.0000000001     1     5     9     8
 -0.0074937946     1     5     9     9
 -0.0000000007     1     5    10     1
 -0.0557882778     1     5    10     2
 -0.0000000013     1     5    10     3
 -0.0049075641     1     5    10     4
 -0.0030447464     1     5    10    10
 -0.0000644498     1     6     2     8
 -0.0002143080     1     6     2     9
 0.0003721868     1     6     4     8
 0.0012375913     1     6     4     9
 -0.6235050173     1     6     6     1
 0.0000000001     1     6     6     2
 -0.0178351736     1     6     6     3
 0.0000000001     1     6     6     4
 0.0107316266     1     6     6     5
 0.0000000001     1     6     7     1
 -0.0000000001     1     6     7    10
 0.0608354273     1     6     8     2
 0.0040476721     1     6     8     4
 0.0021891174     1     6     8    10
 -0.0000000005     1     6     9     1
 0.2022892865     1     6     9     2
 0.0000000001     1     6     9     3
 0.0134592743     1     6     9     4
 -0.0000000002     1     6     9     5
 0.0072792288     1     6     9    10
 0.0000833851     1     6    10     8
 0.0002772713     1     6    10     9
 -0.0002143080     1     7     2     8
 0.0000644498     1     7     2     9
 0.0012375913     1     7     4     8
 -0.0003721867     1     7     4     9
 0.0000000001     1     7     6     1
 -0.0000000001     1     7     6    10
 -0.6235050175     1     7     7     1
 -0.0178351736     1     7     7     3
 0.0000000001     1     7     7     4
 0.0107316265     1     7     7     5
 0.0000000001     1     7     7    10
 -0.0000000008     1     7     8     1
 0.2022892864     1     7     8     2
 0.0134592742     1     7     8     4
 -0.0000000002     1     7     8     5
 0.0072792288     1     7     8    10
 0.0000000004     1     7     9     1
 -0.0608354271     1     7     9     2
 -0.0040476721     1     7     9     4
 0.0000000001     1     7     9     5
 -0.0021891174     1     7     9    10
 0.0002772713     1     7    10     8
 -0.0000833851     1     7    10     9
 0.0000644498     1     8     2     6
 0.0002143080     1     8     2     7
 -0.0003721868     1     8     4     6
 -0.0012375913     1     8     4     7
 0.0609052502     1     8     6     2
 0.0040334574     1     8     6     4
 -0.0000000001     1     8     6     5
 0.0021437440     1     8     6    10
 -0.0000000008     1     8     7     1
 0.2025214608     1     8     7     2
 0.0134120075     1     8     7     4
 -0.0000000002     1     8     7     5
 0.0071283537     1     8     7    10
 -0.5847524146     1     8     8     1
 0.0000000001     1     8     8     2
 -0.0151194549     1     8     8     3
 0.0074937947     1     8     8     5
 0.0000000001     1     8     8    10
 -0.0000000001     1     8     9     2
 -0.0000000001     1     8     9     5
 -0.0000833851     1     8    10     6
 -0.0002772713     1     8    10     7
 0.0002143080     1     9     2     6
 -0.0000644498     1     9     2     7
 -0.0012375913     1     9     4     6
 0.0003721867     1     9     4     7
 -0.0000000005     1     9     6     1
 0.2025214609     1     9     6     2
 0.0000000001     1     9     6     3
 0.0134120075     1     9     6     4
 -0.0000000002     1     9     6     5
 0.0071283537     1     9     6    10
 0.0000000004     1     9     7     1
 -0.0609052501     1     9     7     2
 -0.0040334573     1     9     7     4
 -0.0021437440     1     9     7    10
 -0.0000000001     1     9     8     2
 -0.0000000001     1     9     8     5
 -0.5847524146     1     9     9     1
 0.0000000001     1     9     9     2
 -0.0151194549     1     9     9     3
 0.0074937946     1     9     9     5
 0.0000000001     1     9     9    10
 -0.0002772713     1     9    10     6
 0.0000833851     1     9    10     7
 0.0028283921     1    10     2     1
 -0.0000595203     1    10     2     3
 -0.0001491097     1    10     2     5
 0.0000000001     1    10     3     1
 -0.0901953347     1    10     3     2
 -0.0000000005     1    10     3     3
 -0.0006456217     1    10     3     4
 0.0000000005     1    10     3     5
 -0.0806900420     1    10     4     1
 -0.0000000002     1    10     4     2
 0.0027345341     1    10     4     3
 -0.0022685338     1    10     4     5
 -0.0000000007     1    10     5     1
 -0.0559287691     1    10     5     2
 -0.0000000009     1    10     5     3
 -0.0077297929     1    10     5     4
 0.0000000021     1    10     5     5
 0.0000000001     1    10     6     7
 -0.0021437440     1    10     6     8
 -0.0071283537     1    10     6     9
 0.0000000001     1    10     7     6
 -0.0000000001     1    10     7     7
 -0.0071283537     1    10     7     8
 0.0021437440     1    10     7     9
 -0.0021891174     1    10     8     6
 -0.0072792288     1    10     8     7
 -0.0000000001     1    10     8     8
 -0.0072792288     1    10     9     6
 0.0021891174     1    10     9     7
 -0.0000000001     1    10     9     9
 -0.3355718304     1    10    10     1
 -0.0000000014     1    10    10     2
 -0.0012089547     1    10    10     3
 0.0000000147     1    10    10     4
 0.0030447464     1    10    10     5
 -0.3780673957     2     1     1     2
 -0.0033137657     2     1     1     4
 0.0028283921     2     1     1    10
 0.0038522022     2     1     3     2
 -0.0000000001     2     1     3     3
 0.2188068128     2     1     3     4
 -0.0000000004     2     1     3     5
 0.0901310873     2     1     3    10
 0.2187311498     2     1     4     3
 -0.0000000002     2     1     4     4
 -0.2079931478     2     1     4     5
 0.0000000002     2     1     4    10
 0.0099274262     2     1     5     2
 -0.0000000003     2     1     5     3
 -0.2078170032     2     1     5     4
 -0.0000000009     2     1     5     5
 0.0557882778     2     1     5    10
 -0.0000000001     2     1     6     6
 -0.0608354273     2     1     6     8
 -0.2022892865     2     1     6     9
 -0.2022892864     2     1     7     8
 0.0608354271     2     1     7     9
 -0.0609052502     2     1     8     6
 -0.2025214608     2     1     8     7
 -0.0000000001     2     1     8     8
 0.0000000001     2     1     8     9
 -0.2025214609     2     1     9     6
 0.0609052501     2     1     9     7
 0.0000000001     2     1     9     8
 -0.0000000001     2     1     9     9
 0.0901953347     2     1    10     3
 0.0000000002     2     1    10     4
 0.0559287691     2     1    10     5
 0.0000000014     2     1    10    10
 0.3780673957     2     2     1     1
 -0.0038522022     2     2     1     3
 -0.0099274262     2     2     1     5
 -0.0038522022     2     2     3     1
 0.6866402005     2     2     3     3
 0.0000000002     2     2     3     4
 0.0671378208     2     2     3     5
 0.0000000003     2     2     3    10
 0.0000000002     2     2     4     3
 0.6195833964     2     2     4     4
 -0.0000000004     2     2     4     5
 0.0807248069     2     2     4    10
 -0.0099274262     2     2     5     1
 0.0671378208     2     2     5     3
 -0.0000000004     2     2     5     4
 0.6482271637     2     2     5     5
 0.0000000009     2     2     5    10
 0.6237562724     2     2     6     6
 -0.0000000001     2     2     6     7
 -0.0000000003     2     2     6     8
 -0.0000000005     2     2     6     9
 -0.0000000001     2     2     7     6
 0.6237562725     2     2     7     7
 -0.0000000002     2     2     7     8
 -0.0000000001     2     2     7     9
 -0.0000000003     2     2     8     6
 -0.0000000002     2     2     8     7
 0.5845822076     2     2     8     8
 -0.0000000005     2     2     9     6
 -0.0000000001     2     2     9     7
 0.5845822076     2     2     9     9
 0.0000000003     2     2    10     3
 0.0807248069     2     2    10     4
 0.0000000009     2     2    10     5
 0.3355307340     2     2    10    10
 0.0038522022     2     3     1     2
 0.0000758707     2     3     1     4
 -0.0000000001     2     3     1     5
 -0.0000595203     2     3     1    10
 0.0000000001     2     3     3     1
 -0.6866402005     2     3     3     2
 -0.0053489508     2     3     3     4
 0.0000000003     2     3     3     5
 0.0040357546     2     3     3    10
 -0.2187311498     2     3     4     1
 -0.0000000002     2     3     4     2
 -0.0111406746     2     3     4     5
 0.0000000003     2     3     4    10
 0.0000000003     2     3     5     1
 -0.0671378208     2     3     5     2
 -0.0144860750     2     3     5     4
 0.0000000007     2     3     5     5
 0.0051867486     2     3     5    10
 -0.0054613448     2     3     6     8
 -0.0181600031     2     3     6     9
 -0.0181600031     2     3     7     8
 0.0054613448     2     3     7     9
 -0.0040402097     2     3     8     6
 -0.0134344603     2     3     8     7
 -0.0000000001     2     3     8     8
 -0.0134344603     2     3     9     6
 0.0040402097     2     3     9     7
 -0.0000000001     2     3     9     9
 -0.0901953347     2     3    10     1
 -0.0000000003     2     3    10     2
 -0.0000000004     2     3    10     4
 0.0046640785     2     3    10     5
 -0.0000000245     2     3    10    10
 0.0033137657     2     4     1     1
 -0.0000758707     2     4     1     3
 -0.0001765864     2     4     1     5
 -0.2188068128     2     4     3     1
 -0.0000000002     2     4     3     2
 0.0053489508     2     4     3     3
 0.0033595007     2     4     3     5
 0.0000000007     2     4     3    10
 0.0000000002     2     4     4     1
 -0.6195833964     2     4     4     2
 -0.0000000001     2     4     4     5
 -0.0019020838     2     4     4    10
 0.2078170032     2     4     5     1
 0.0000000004     2     4     5     2
 0.0144860750     2     4     5     3
 0.0204424248     2     4     5     5
 0.0000000021     2     4     5    10
 0.0193211386     2     4     6     6
 -0.0000000001     2     4     6     8
 -0.0000000002     2     4     6     9
 0.0193211385     2     4     7     7
 -0.0000000002     2     4     7     8
 -0.0000000001     2     4     8     6
 -0.0000000002     2     4     8     7
 0.0185099113     2     4     8     8
 -0.0000000002     2     4     9     6
 0.0000000001     2     4     9     7
 0.0185099112     2     4     9     9
 -0.0000000002     2     4    10     1
 -0.0807248069     2     4    10     2
 0.0000000004     2     4    10     3
 0.0000000014     2     4    10     5
 0.0031760669     2     4    10    10
 0.0099274262     2     5     1     2
 0.0000000001     2     5     1     3
 0.0001765864     2     5     1     4
 -0.0001491097     2     5     1    10
 0.0000000004     2     5     3     1
 -0.0671378208     2     5     3     2
 -0.0000000003     2     5     3     3
 -0.0033595007     2     5     3     4
 0.0002385117     2     5     3    10
 0.2079931478     2     5     4     1
 0.0000000004     2     5     4     2
 0.0111406746     2     5     4     3
 0.0000000001     2     5     4     4
 0.0000000005     2     5     4    10
 0.0000000009     2     5     5     1
 -0.6482271637     2     5     5     2
 -0.0000000007     2     5     5     3
 -0.0204424248     2     5     5     4
 -0.0051076263     2     5     5    10
 0.0000000002     2     5     6     6
 0.0002017394     2     5     6     8
 0.0006708216     2     5     6     9
 0.0000000001     2     5     7     7
 0.0006708215     2     5     7     8
 -0.0002017394     2     5     7     9
 0.0006404358     2     5     8     6
 0.0021295700     2     5     8     7
 -0.0000000002     2     5     8     8
 0.0021295700     2     5     9     6
 -0.0006404358     2     5     9     7
 -0.0000000002     2     5     9     9
 -0.0559287691     2     5    10     1
 -0.0000000009     2     5    10     2
 -0.0046640785     2     5    10     3
 -0.0000000014     2     5    10     4
 -0.0000000106     2     5    10    10
 0.0000644498     2     6     1     8
 0.0002143080     2     6     1     9
 -0.0010287511     2     6     3     8
 -0.0034207917     2     6     3     9
 -0.0003851252     2     6     5     8
 -0.0012806141     2     6     5     9
 0.0000000001     2     6     6     1
 -0.6237562724     2     6     6     2
 -0.0193211386     2     6     6     4
 -0.0000000002     2     6     6     5
 -0.0053010907     2     6     6    10
 0.0000000001     2     6     7     2
 0.0609052502     2     6     8     1
 0.0000000003     2     6     8     2
 0.0040402097     2     6     8     3
 0.0000000001     2     6     8     4
 -0.0006404358     2     6     8     5
 0.0000000001     2     6     8    10
 0.2025214609     2     6     9     1
 0.0000000005     2     6     9     2
 0.0134344603     2     6     9     3
 0.0000000002     2     6     9     4
 -0.0021295700     2     6     9     5
 0.0000000001     2     6    10     8
 0.0000000001     2     6    10     9
 0.0002143080     2     7     1     8
 -0.0000644498     2     7     1     9
 -0.0034207917     2     7     3     8
 0.0010287511     2     7     3     9
 -0.0012806141     2     7     5     8
 0.0003851252     2     7     5     9
 0.0000000001     2     7     6     2
 -0.6237562725     2     7     7     2
 -0.0193211385     2     7     7     4
 -0.0000000001     2     7     7     5
 -0.0053010906     2     7     7    10
 0.2025214608     2     7     8     1
 0.0000000002     2     7     8     2
 0.0134344603     2     7     8     3
 0.0000000002     2     7     8     4
 -0.0021295700     2     7     8     5
 -0.0000000001     2     7     8    10
 -0.0609052501     2     7     9     1
 0.0000000001     2     7     9     2
 -0.0040402097     2     7     9     3
 -0.0000000001     2     7     9     4
 0.0006404358     2     7     9     5
 0.0000000001     2     7     9    10
 0.0000000001     2     7    10     9
 -0.0000644498     2     8     1     6
 -0.0002143080     2     8     1     7
 0.0010287511     2     8     3     6
 0.0034207917     2     8     3     7
 0.0003851252     2     8     5     6
 0.0012806141     2     8     5     7
 0.0608354273     2     8     6     1
 0.0000000003     2     8     6     2
 0.0054613448     2     8     6     3
 0.0000000001     2     8     6     4
 -0.0002017394     2     8     6     5
 0.2022892864     2     8     7     1
 0.0000000002     2     8     7     2
 0.0181600031     2     8     7     3
 0.0000000002     2     8     7     4
 -0.0006708215     2     8     7     5
 0.0000000001     2     8     7    10
 0.0000000001     2     8     8     1
 -0.5845822076     2     8     8     2
 0.0000000001     2     8     8     3
 -0.0185099113     2     8     8     4
 0.0000000002     2     8     8     5
 -0.0065237710     2     8     8    10
 -0.0000000001     2     8     9     1
 -0.0000000001     2     8    10     6
 -0.0002143080     2     9     1     6
 0.0000644498     2     9     1     7
 0.0034207917     2     9     3     6
 -0.0010287511     2     9     3     7
 0.0012806141     2     9     5     6
 -0.0003851252     2     9     5     7
 0.2022892865     2     9     6     1
 0.0000000005     2     9     6     2
 0.0181600031     2     9     6     3
 0.0000000002     2     9     6     4
 -0.0006708216     2     9     6     5
 0.0000000001     2     9     6    10
 -0.0608354271     2     9     7     1
 0.0000000001     2     9     7     2
 -0.0054613448     2     9     7     3
 0.0002017394     2     9     7     5
 -0.0000000001     2     9     8     1
 0.0000000001     2     9     9     1
 -0.5845822076     2     9     9     2
 0.0000000001     2     9     9     3
 -0.0185099112     2     9     9     4
 0.0000000002     2     9     9     5
 -0.0065237710     2     9     9    10
 -0.0000000001     2     9    10     6
 -0.0000000001     2     9    10     7
 -0.0028283921     2    10     1     1
 0.0000595203     2    10     1     3
 0.0001491097     2    10     1     5
 -0.0901310873     2    10     3     1
 -0.0000000003     2    10     3     2
 -0.0040357546     2    10     3     3
 -0.0000000007     2    10     3     4
 -0.0002385117     2    10     3     5
 -0.0000000002     2    10     4     1
 -0.0807248069     2    10     4     2
 -0.0000000003     2    10     4     3
 0.0019020838     2    10     4     4
 -0.0000000005     2    10     4     5
 -0.0557882778     2    10     5     1
 -0.0000000009     2    10     5     2
 -0.0051867486     2    10     5     3
 -0.0000000021     2    10     5     4
 0.0051076263     2    10     5     5
 0.0053010907     2    10     6     6
 -0.0000000001     2    10     6     9
 0.0053010906     2    10     7     7
 -0.0000000001     2    10     7     8
 -0.0000000001     2    10     8     6
 0.0000000001     2    10     8     7
 0.0065237710     2    10     8     8
 -0.0000000001     2    10     9     7
 0.0065237710     2    10     9     9
 -0.0000000014     2    10    10     1
 -0.3355307340     2    10    10     2
 0.0000000245     2    10    10     3
 -0.0031760669     2    10    10     4
 0.0000000106     2    10    10     5
 -0.6866121691     3     1     1     3
 0.0000000008     3     1     1     4
 -0.0669684316     3     1     1     5
 0.0000000001     3     1     1    10
 -0.0038522022     3     1     2     2
 0.0000000001     3     1     2     3
 -0.2188068128     3     1     2     4
 0.0000000004     3     1     2     5
 -0.0901310873     3     1     2    10
 -0.0000758707     3     1     4     2
 -0.0000000001     3     1     4     3
 0.0047400489     3     1     4     4
 -0.0000000004     3     1     4     5
 -0.0031629324     3     1     4    10
 0.0000000001     3     1     5     2
 0.0135690342     3     1     5     3
 -0.0000000002     3     1     5     4
 0.0227996585     3     1     5     5
 0.0000000013     3     1     5    10
 0.0178351736     3     1     6     6
 -0.0000000001     3     1     6     9
 0.0178351736     3     1     7     7
 0.0151194549     3     1     8     8
 -0.0000000001     3     1     9     6
 0.0151194549     3     1     9     9
 0.0000595203     3     1    10     2
 0.0000000005     3     1    10     3
 -0.0027345341     3     1    10     4
 0.0000000009     3     1    10     5
 0.0012089547     3     1    10    10
 0.0000000001     3     2     1     3
 -0.2187311498     3     2     1     4
 0.0000000003     3     2     1     5
 -0.0901953347     3     2     1    10
 0.0038522022     3     2     2     1
 -0.6866402005     3     2     2     3
 -0.0000000002     3     2     2     4
 -0.0671378208     3     2     2     5
 -0.0000000003     3     2     2    10
 0.0000758707     3     2     4     1
 -0.0053489508     3     2     4     3
 -0.0144860750     3     2     4     5
 -0.0000000004     3     2     4    10
 -0.0000000001     3     2     5     1
 0.0000000003     3     2     5     3
 -0.0111406746     3     2     5     4
 0.0000000007     3     2     5     5
 0.0046640785     3     2     5    10
 -0.0040402097     3     2     6     8
 -0.0134344603     3     2     6     9
 -0.0134344603     3     2     7     8
 0.0040402097     3     2     7     9
 -0.0054613448     3     2     8     6
 -0.0181600031     3     2     8     7
 -0.0000000001     3     2     8     8
 -0.0181600031     3     2     9     6
 0.0054613448     3     2     9     7
 -0.0000000001     3     2     9     9
 -0.0000595203     3     2    10     1
 0.0040357546     3     2    10     3
 0.0000000003     3     2    10     4
 0.0051867486     3     2    10     5
 -0.0000000245     3     2    10    10
 0.6866121691     3     3     1     1
 -0.0000000001     3     3     1     2
 0.0000000001     3     3     1     4
 -0.0135690342     3     3     1     5
 -0.0000000005     3     3     1    10
 -0.0000000001     3     3     2     1
 0.6866402005     3     3     2     2
 0.0053489508     3     3     2     4
 -0.0000000003     3     3     2     5
 -0.0040357546     3     3     2    10
 0.0000000001     3     3     4     1
 0.0053489508     3     3     4     2
 0.3876429236     3     3     4     4
 0.0000000010     3     3     4     5
 0.0326611394     3     3     4    10
 -0.0135690342     3     3     5     1
 -0.0000000003     3     3     5     2
 0.0000000010     3     3     5     4
 0.4512647296     3     3     5     5
 0.0000000009     3     3     5    10
 0.4627252231     3     3     6     6
 -0.0000000001     3     3     6     8
 0.4627252232     3     3     7     7
 0.0000000003     3     3     7     8
 -0.0000000002     3     3     7     9
 -0.0000000001     3     3     8     6
 0.0000000003     3     3     8     7
 0.4512436592     3     3     8     8
 -0.0000000002     3     3     9     7
 0.4512436592     3     3     9     9
 -0.0000000005     3     3    10     1
 -0.0040357546     3     3    10     2
 0.0326611394     3     3    10     4
 0.0000000009     3     3    10     5
 0.2838927997     3     3    10    10
 -0.0000000008     3     4     1     1
 0.2187311498     3     4     1     2
 -0.0000000001     3     4     1     3
 -0.0000000002     3     4     1     5
 -0.0006456217     3     4     1    10
 0.2188068128     3     4     2     1
 0.0000000002     3     4     2     2
 -0.0053489508     3     4     2     3
 -0.0033595007     3     4     2     5
 -0.0000000007     3     4     2    10
 -0.0047400489     3     4     4     1
 -0.3876429236     3     4     4     3
 -0.1085405449     3     4     4     5
 0.0000000007     3     4     4    10
 0.0000000002     3     4     5     1
 0.0111406746     3     4     5     2
 -0.0000000010     3     4     5     3
 -0.0000000014     3     4     5     5
 0.0487248937     3     4     5    10
 0.0000000002     3     4     6     7
 -0.0195078903     3     4     6     8
 -0.0648674200     3     4     6     9
 0.0000000002     3     4     7     6
 -0.0000000005     3     4     7     7
 -0.0648674200     3     4     7     8
 0.0195078902     3     4     7     9
 -0.0141813810     3     4     8     6
 -0.0471557699     3     4     8     7
 -0.0000000003     3     4     8     8
 -0.0471557701     3     4     9     6
 0.0141813808     3     4     9     7
 -0.0000000004     3     4     9     9
 0.0027345341     3     4    10     1
 -0.0000000003     3     4    10     2
 -0.0326611394     3     4    10     3
 0.0096599814     3     4    10     5
 -0.0000000288     3     4    10    10
 0.0669684316     3     5     1     1
 -0.0000000003     3     5     1     2
 0.0135690342     3     5     1     3
 0.0000000002     3     5     1     4
 0.0000000005     3     5     1    10
 -0.0000000004     3     5     2     1
 0.0671378208     3     5     2     2
 0.0000000003     3     5     2     3
 0.0033595007     3     5     2     4
 -0.0002385117     3     5     2    10
 0.0000000004     3     5     4     1
 0.0144860750     3     5     4     2
 -0.0000000010     3     5     4     3
 0.1085405449     3     5     4     4
 0.0398588646     3     5     4    10
 -0.0227996585     3     5     5     1
 -0.0000000007     3     5     5     2
 -0.4512647296     3     5     5     3
 0.0000000014     3     5     5     4
 0.0000000007     3     5     5    10
 0.0562844187     3     5     6     6
 0.0000000001     3     5     6     8
 0.0000000002     3     5     6     9
 0.0562844186     3     5     7     7
 0.0000000001     3     5     7     8
 0.0000000004     3     5     8     6
 -0.0000000001     3     5     8     7
 0.0419189640     3     5     8     8
 0.0000000003     3     5     9     6
 0.0000000003     3     5     9     7
 0.0419189639     3     5     9     9
 -0.0000000009     3     5    10     1
 -0.0051867486     3     5    10     2
 -0.0000000009     3     5    10     3
 -0.0096599814     3     5    10     4
 0.0020594698     3     5    10    10
 0.0010287511     3     6     2     8
 0.0034207917     3     6     2     9
 -0.0054200325     3     6     4     8
 -0.0180226317     3     6     4     9
 -0.0000000002     3     6     5     8
 -0.0000000001     3     6     5     9
 -0.0178351736     3     6     6     1
 -0.4627252231     3     6     6     3
 -0.0562844187     3     6     6     5
 0.0000000013     3     6     6    10
 -0.0000000002     3     6     7     4
 0.0000000004     3     6     7    10
 0.0054613448     3     6     8     2
 0.0000000001     3     6     8     3