&FCI NORB= 10,NELEC= 14,MS2=0,
 ORBSYM=1,1,1,1,1,1,1,1,1,1
 ISYM=1,
&END
 0.4812875877     1     1     2     2
 -0.0076348966     1     1     2     4
 0.0014308073     1     1     2    10
 0.8025747930     1     1     3     3
 -0.0000000002     1     1     3     4
 -0.1042548709     1     1     3     5
 -0.0000000002     1     1     3    10
 -0.0076348966     1     1     4     2
 -0.0000000002     1     1     4     3
 0.6366229374     1     1     4     4
 -0.0000000016     1     1     4     5
 -0.0810164209     1     1     4    10
 -0.1042548709     1     1     5     3
 -0.0000000016     1     1     5     4
 0.6748090175     1     1     5     5
 -0.0000000013     1     1     5    10
 0.6830438209     1     1     6     6
 -0.0000000003     1     1     6     8
 0.0000000004     1     1     6     9
 0.6830438209     1     1     7     7
 -0.0000000004     1     1     7     8
 -0.0000000004     1     1     7     9
 -0.0000000003     1     1     8     6
 -0.0000000004     1     1     8     7
 0.5567322627     1     1     8     8
 0.0000000004     1     1     9     6
 -0.0000000004     1     1     9     7
 0.5567322627     1     1     9     9
 0.0014308073     1     1    10     2
 -0.0000000002     1     1    10     3
 -0.0810164209     1     1    10     4
 -0.0000000013     1     1    10     5
 0.2592004526     1     1    10    10
 -0.4812875877     1     2     2     1
 -0.0104469998     1     2     2     3
 0.0168073042     1     2     2     5
 -0.0000000001     1     2     3     3
 0.1440610936     1     2     3     4
 -0.0000000003     1     2     3     5
 -0.0409907683     1     2     3    10
 0.0076348966     1     2     4     1
 0.1444063350     1     2     4     3
 -0.0000000009     1     2     4     4
 0.2326959239     1     2     4     5
 -0.0000000046     1     2     4    10
 -0.0000000002     1     2     5     3
 0.2332380596     1     2     5     4
 -0.0000000009     1     2     5     5
 -0.0231726364     1     2     5    10
 -0.0000000002     1     2     6     6
 -0.1163904390     1     2     6     8
 0.1218590544     1     2     6     9
 -0.0000000001     1     2     7     7
 -0.1218590544     1     2     7     8
 -0.1163904390     1     2     7     9
 -0.1160668445     1     2     8     6
 -0.1215202558     1     2     8     7
 -0.0000000001     1     2     8     8
 0.1215202559     1     2     9     6
 -0.1160668446     1     2     9     7
 -0.0000000001     1     2     9     9
 -0.0014308073     1     2    10     1
 -0.0410306354     1     2    10     3
 -0.0000000047     1     2    10     4
 -0.0230628983     1     2    10     5
 0.0000000021     1     2    10    10
 0.0104469998     1     3     2     2
 -0.0003439982     1     3     2     4
 -0.0000000001     1     3     2     5
 0.0000559423     1     3     2    10
 -0.8025747930     1     3     3     1
 0.0000000001     1     3     3     2
 0.0000000003     1     3     3     4
 0.0221896152     1     3     3     5
 -0.0000000002     1     3     3    10
 0.0000000002     1     3     4     1
 -0.1444063350     1     3     4     2
 -0.0093094080     1     3     4     4
 -0.0000000002     1     3     4     5
 0.0012625543     1     3     4    10
 0.1042548709     1     3     5     1
 0.0000000002     1     3     5     2
 -0.0000000006     1     3     5     4
 -0.0247552257     1     3     5     5
 0.0000000009     1     3     5    10
 -0.0178494150     1     3     6     6
 -0.0000000001     1     3     6     8
 0.0000000002     1     3     6     9
 -0.0178494151     1     3     7     7
 -0.0000000002     1     3     7     8
 -0.0000000001     1     3     7     9
 -0.0000000001     1     3     8     6
 -0.0000000001     1     3     8     7
 -0.0117501374     1     3     8     8
 0.0000000001     1     3     9     6
 -0.0000000001     1     3     9     7
 -0.0117501374     1     3     9     9
 0.0000000002     1     3    10     1
 0.0410306354     1     3    10     2
 0.0008157337     1     3    10     4
 0.0000000005     1     3    10     5
 -0.0009627643     1     3    10    10
 0.0076348966     1     4     2     1
 0.0003439982     1     4     2     3
 -0.0005417563     1     4     2     5
 0.0000000002     1     4     3     1
 -0.1440610936     1     4     3     2
 -0.0000000003     1     4     3     3
 0.0000000003     1     4     3     5
 0.0003079258     1     4     3    10
 -0.6366229374     1     4     4     1
 0.0000000009     1     4     4     2
 0.0093094080     1     4     4     3
 -0.0023988996     1     4     4     5
 0.0000000005     1     4     4    10
 0.0000000016     1     4     5     1
 -0.2332380596     1     4     5     2
 0.0000000006     1     4     5     3
 -0.0000000004     1     4     5     5
 -0.0004661057     1     4     5    10
 0.0000000003     1     4     6     6
 0.0069734695     1     4     6     8
 -0.0073011186     1     4     6     9
 0.0000000003     1     4     7     7
 0.0073011186     1     4     7     8
 0.0069734694     1     4     7     9
 0.0079437195     1     4     8     6
 0.0083169559     1     4     8     7
 0.0000000007     1     4     8     8
 -0.0083169558     1     4     9     6
 0.0079437194     1     4     9     7
 0.0000000007     1     4     9     9
 0.0810164209     1     4    10     1
 0.0000000047     1     4    10     2
 -0.0008157337     1     4    10     3
 0.0000467592     1     4    10     5
 0.0000000343     1     4    10    10
 -0.0168073042     1     5     2     2
 0.0000000001     1     5     2     3
 0.0005417563     1     5     2     4
 -0.0001043322     1     5     2    10
 0.1042548709     1     5     3     1
 0.0000000003     1     5     3     2
 -0.0221896152     1     5     3     3
 -0.0000000003     1     5     3     4
 0.0000000002     1     5     3    10
 0.0000000016     1     5     4     1
 -0.2326959239     1     5     4     2
 0.0000000002     1     5     4     3
 0.0023988996     1     5     4     4
 -0.0003989545     1     5     4    10
 -0.6748090175     1     5     5     1
 0.0000000009     1     5     5     2
 0.0247552257     1     5     5     3
 0.0000000004     1     5     5     4
 -0.0000000015     1     5     5    10
 -0.0151177660     1     5     6     6
 -0.0151177659     1     5     7     7
 -0.0000000002     1     5     8     6
 -0.0000000002     1     5     8     7
 -0.0072875820     1     5     8     8
 0.0000000002     1     5     9     6
 -0.0000000001     1     5     9     7
 -0.0072875820     1     5     9     9
 0.0000000013     1     5    10     1
 0.0230628983     1     5    10     2
 -0.0000000005     1     5    10     3
 -0.0000467592     1     5    10     4
 0.0009212026     1     5    10    10
 -0.0003039608     1     6     2     8
 0.0003182424     1     6     2     9
 -0.0017956348     1     6     4     8
 0.0018800028     1     6     4     9
 0.0000000001     1     6     5     8
 -0.0000000001     1     6     5     9
 -0.6830438209     1     6     6     1
 0.0000000002     1     6     6     2
 0.0178494150     1     6     6     3
 -0.0000000003     1     6     6     4
 0.0151177660     1     6     6     5
 0.0000000005     1     6     6    10
 0.0000000003     1     6     8     1
 0.1160668445     1     6     8     2
 0.0000000001     1     6     8     3
 -0.0079437195     1     6     8     4
 0.0000000002     1     6     8     5
 0.0025566753     1     6     8    10
 -0.0000000004     1     6     9     1
 -0.1215202559     1     6     9     2
 -0.0000000001     1     6     9     3
 0.0083169558     1     6     9     4
 -0.0000000002     1     6     9     5
 -0.0026768009     1     6     9    10
 0.0001919321     1     6    10     8
 -0.0002009500     1     6    10     9
 -0.0003182424     1     7     2     8
 -0.0003039608     1     7     2     9
 -0.0000000001     1     7     3     8
 -0.0018800028     1     7     4     8
 -0.0017956348     1     7     4     9
 0.0000000001     1     7     5     8
 0.0000000001     1     7     5     9
 -0.6830438209     1     7     7     1
 0.0000000001     1     7     7     2
 0.0178494151     1     7     7     3
 -0.0000000003     1     7     7     4
 0.0151177659     1     7     7     5
 0.0000000006     1     7     7    10
 0.0000000004     1     7     8     1
 0.1215202558     1     7     8     2
 0.0000000001     1     7     8     3
 -0.0083169559     1     7     8     4
 0.0000000002     1     7     8     5
 0.0026768009     1     7     8    10
 0.0000000004     1     7     9     1
 0.1160668446     1     7     9     2
 0.0000000001     1     7     9     3
 -0.0079437194     1     7     9     4
 0.0000000001     1     7     9     5
 0.0025566753     1     7     9    10
 0.0002009500     1     7    10     8
 0.0001919321     1     7    10     9
 0.0003039608     1     8     2     6
 0.0003182424     1     8     2     7
 0.0000000001     1     8     3     7
 0.0017956348     1     8     4     6
 0.0018800028     1     8     4     7
 -0.0000000001     1     8     5     6
 -0.0000000001     1     8     5     7
 0.0000000003     1     8     6     1
 0.1163904390     1     8     6     2
 0.0000000001     1     8     6     3
 -0.0069734695     1     8     6     4
 0.0024758156     1     8     6    10
 0.0000000004     1     8     7     1
 0.1218590544     1     8     7     2
 0.0000000002     1     8     7     3
 -0.0073011186     1     8     7     4
 0.0025921419     1     8     7    10
 -0.5567322627     1     8     8     1
 0.0000000001     1     8     8     2
 0.0117501374     1     8     8     3
 -0.0000000007     1     8     8     4
 0.0072875820     1     8     8     5
 -0.0000000020     1     8     8    10
 -0.0001919321     1     8    10     6
 -0.0002009500     1     8    10     7
 -0.0003182424     1     9     2     6
 0.0003039608     1     9     2     7
 -0.0018800028     1     9     4     6
 0.0017956348     1     9     4     7
 0.0000000001     1     9     5     6
 -0.0000000001     1     9     5     7
 -0.0000000004     1     9     6     1
 -0.1218590544     1     9     6     2
 -0.0000000002     1     9     6     3
 0.0073011186     1     9     6     4
 -0.0025921420     1     9     6    10
 0.0000000004     1     9     7     1
 0.1163904390     1     9     7     2
 0.0000000001     1     9     7     3
 -0.0069734694     1     9     7     4
 0.0024758155     1     9     7    10
 -0.5567322627     1     9     9     1
 0.0000000001     1     9     9     2
 0.0117501374     1     9     9     3
 -0.0000000007     1     9     9     4
 0.0072875820     1     9     9     5
 -0.0000000020     1     9     9    10
 0.0002009500     1     9    10     6
 -0.0001919321     1     9    10     7
 -0.0014308073     1    10     2     1
 -0.0000559423     1    10     2     3
 0.0001043322     1    10     2     5
 0.0000000002     1    10     3     1
 0.0409907683     1    10     3     2
 0.0000000002     1    10     3     3
 -0.0003079258     1    10     3     4
 -0.0000000002     1    10     3     5
 0.0810164209     1    10     4     1
 0.0000000046     1    10     4     2
 -0.0012625543     1    10     4     3
 -0.0000000005     1    10     4     4
 0.0003989545     1    10     4     5
 0.0000000013     1    10     5     1
 0.0231726364     1    10     5     2
 -0.0000000009     1    10     5     3
 0.0004661057     1    10     5     4
 0.0000000015     1    10     5     5
 -0.0000000005     1    10     6     6
 -0.0024758156     1    10     6     8
 0.0025921420     1    10     6     9
 -0.0000000006     1    10     7     7
 -0.0025921419     1    10     7     8
 -0.0024758155     1    10     7     9
 -0.0025566753     1    10     8     6
 -0.0026768009     1    10     8     7
 0.0000000020     1    10     8     8
 0.0026768009     1    10     9     6
 -0.0025566753     1    10     9     7
 0.0000000020     1    10     9     9
 -0.2592004526     1    10    10     1
 -0.0000000021     1    10    10     2
 0.0009627643     1    10    10     3
 -0.0000000343     1    10    10     4
 -0.0009212026     1    10    10     5
 -0.4812875877     2     1     1     2
 0.0076348966     2     1     1     4
 -0.0014308073     2     1     1    10
 -0.0104469998     2     1     3     2
 -0.0000000001     2     1     3     3
 0.1444063350     2     1     3     4
 -0.0000000002     2     1     3     5
 -0.0410306354     2     1     3    10
 0.1440610936     2     1     4     3
 -0.0000000009     2     1     4     4
 0.2332380596     2     1     4     5
 -0.0000000047     2     1     4    10
 0.0168073042     2     1     5     2
 -0.0000000003     2     1     5     3
 0.2326959239     2     1     5     4
 -0.0000000009     2     1     5     5
 -0.0230628983     2     1     5    10
 -0.0000000002     2     1     6     6
 -0.1160668445     2     1     6     8
 0.1215202559     2     1     6     9
 -0.0000000001     2     1     7     7
 -0.1215202558     2     1     7     8
 -0.1160668446     2     1     7     9
 -0.1163904390     2     1     8     6
 -0.1218590544     2     1     8     7
 -0.0000000001     2     1     8     8
 0.1218590544     2     1     9     6
 -0.1163904390     2     1     9     7
 -0.0000000001     2     1     9     9
 -0.0409907683     2     1    10     3
 -0.0000000046     2     1    10     4
 -0.0231726364     2     1    10     5
 0.0000000021     2     1    10    10
 0.4812875877     2     2     1     1
 0.0104469998     2     2     1     3
 -0.0168073042     2     2     1     5
 0.0104469998     2     2     3     1
 0.8028263372     2     2     3     3
 -0.0000000002     2     2     3     4
 -0.1048883281     2     2     3     5
 -0.0000000002     2     2     3    10
 -0.0000000002     2     2     4     3
 0.6364461745     2     2     4     4
 -0.0000000015     2     2     4     5
 -0.0809618374     2     2     4    10
 -0.0168073042     2     2     5     1
 -0.1048883281     2     2     5     3
 -0.0000000015     2     2     5     4
 0.6760370513     2     2     5     5
 -0.0000000014     2     2     5    10
 0.6836297414     2     2     6     6
 -0.0000000003     2     2     6     8
 0.0000000004     2     2     6     9
 0.6836297414     2     2     7     7
 -0.0000000004     2     2     7     8
 -0.0000000004     2     2     7     9
 -0.0000000003     2     2     8     6
 -0.0000000004     2     2     8     7
 0.5564606971     2     2     8     8
 0.0000000004     2     2     9     6
 -0.0000000004     2     2     9     7
 0.5564606971     2     2     9     9
 -0.0000000002     2     2    10     3
 -0.0809618374     2     2    10     4
 -0.0000000014     2     2    10     5
 0.2591974773     2     2    10    10
 -0.0104469998     2     3     1     2
 0.0003439982     2     3     1     4
 0.0000000001     2     3     1     5
 -0.0000559423     2     3     1    10
 0.0000000001     2     3     3     1
 -0.8028263372     2     3     3     2
 0.0129280528     2     3     3     4
 0.0000000004     2     3     3     5
 -0.0028614612     2     3     3    10
 -0.1440610936     2     3     4     1
 0.0000000002     2     3     4     2
 -0.0174400045     2     3     4     5
 0.0000000009     2     3     4    10
 0.0000000003     2     3     5     1
 0.1048883281     2     3     5     2
 -0.0232871305     2     3     5     4
 -0.0000000006     2     3     5     5
 0.0041389254     2     3     5    10
 0.0000000004     2     3     6     6
 0.0142617855     2     3     6     8
 -0.0149318768     2     3     6     9
 0.0000000004     2     3     7     7
 0.0149318767     2     3     7     8
 0.0142617855     2     3     7     9
 0.0093742567     2     3     8     6
 0.0098147069     2     3     8     7
 0.0000000007     2     3     8     8
 -0.0098147069     2     3     9     6
 0.0093742566     2     3     9     7
 0.0000000007     2     3     9     9
 0.0409907683     2     3    10     1
 0.0000000002     2     3    10     2
 0.0000000009     2     3    10     4
 0.0018609762     2     3    10     5
 0.0000000257     2     3    10    10
 -0.0076348966     2     4     1     1
 -0.0003439982     2     4     1     3
 0.0005417563     2     4     1     5
 -0.1444063350     2     4     3     1
 0.0000000002     2     4     3     2
 -0.0129280528     2     4     3     3
 0.0058412497     2     4     3     5
 0.0000000002     2     4     3    10
 0.0000000009     2     4     4     1
 -0.6364461745     2     4     4     2
 -0.0000000003     2     4     4     5
 -0.0002914298     2     4     4    10
 -0.2326959239     2     4     5     1
 0.0000000015     2     4     5     2
 0.0232871305     2     4     5     3
 -0.0209460707     2     4     5     5
 -0.0000000008     2     4     5    10
 -0.0202455681     2     4     6     6
 -0.0000000001     2     4     6     8
 0.0000000002     2     4     6     9
 -0.0202455680     2     4     7     7
 -0.0000000002     2     4     7     8
 -0.0000000002     2     4     7     9
 -0.0000000001     2     4     8     6
 -0.0000000001     2     4     8     7
 -0.0150101128     2     4     8     8
 0.0000000001     2     4     9     6
 -0.0000000001     2     4     9     7
 -0.0150101128     2     4     9     9
 0.0000000046     2     4    10     1
 0.0809618374     2     4    10     2
 -0.0000000009     2     4    10     3
 -0.0000000004     2     4    10     5
 0.0002623951     2     4    10    10
 0.0168073042     2     5     1     2
 -0.0000000001     2     5     1     3
 -0.0005417563     2     5     1     4
 0.0001043322     2     5     1    10
 0.0000000002     2     5     3     1
 0.1048883281     2     5     3     2
 -0.0000000004     2     5     3     3
 -0.0058412497     2     5     3     4
 0.0019916706     2     5     3    10
 -0.2332380596     2     5     4     1
 0.0000000015     2     5     4     2
 0.0174400045     2     5     4     3
 0.0000000003     2     5     4     4
 -0.0000000004     2     5     4    10
 0.0000000009     2     5     5     1
 -0.6760370513     2     5     5     2
 0.0000000006     2     5     5     3
 0.0209460707     2     5     5     4
 -0.0043649329     2     5     5    10
 -0.0000000001     2     5     6     6
 -0.0001129568     2     5     6     8
 0.0001182642     2     5     6     9
 -0.0001182641     2     5     7     8
 -0.0001129569     2     5     7     9
 0.0011637166     2     5     8     6
 0.0012183940     2     5     8     7
 0.0000000004     2     5     8     8
 -0.0000000001     2     5     8     9
 -0.0012183940     2     5     9     6
 0.0011637167     2     5     9     7
 -0.0000000001     2     5     9     8
 0.0000000004     2     5     9     9
 0.0231726364     2     5    10     1
 0.0000000014     2     5    10     2
 -0.0018609762     2     5    10     3
 0.0000000004     2     5    10     4
 0.0000000200     2     5    10    10
 0.0003039608     2     6     1     8
 -0.0003182424     2     6     1     9
 0.0036951013     2     6     3     8
 -0.0038687159     2     6     3     9
 -0.0010106680     2     6     5     8
 0.0010581544     2     6     5     9
 0.0000000002     2     6     6     1
 -0.6836297414     2     6     6     2
 -0.0000000004     2     6     6     3
 0.0202455681     2     6     6     4
 0.0000000001     2     6     6     5
 -0.0057170609     2     6     6    10
 0.1163904390     2     6     8     1
 0.0000000003     2     6     8     2
 -0.0093742567     2     6     8     3
 0.0000000001     2     6     8     4
 -0.0011637166     2     6     8     5
 0.0000000020     2     6     8    10
 -0.1218590544     2     6     9     1
 -0.0000000004     2     6     9     2
 0.0098147069     2     6     9     3
 -0.0000000001     2     6     9     4
 0.0012183940     2     6     9     5
 -0.0000000021     2     6     9    10
 0.0000000024     2     6    10     8
 -0.0000000025     2     6    10     9
 0.0003182424     2     7     1     8
 0.0003039608     2     7     1     9
 0.0038687159     2     7     3     8
 0.0036951013     2     7     3     9
 -0.0000000001     2     7     4     8
 -0.0010581544     2     7     5     8
 -0.0010106680     2     7     5     9
 0.0000000001     2     7     7     1
 -0.6836297414     2     7     7     2
 -0.0000000004     2     7     7     3
 0.0202455680     2     7     7     4
 -0.0057170608     2     7     7    10
 0.1218590544     2     7     8     1
 0.0000000004     2     7     8     2
 -0.0098147069     2     7     8     3
 0.0000000001     2     7     8     4
 -0.0012183940     2     7     8     5
 0.0000000021     2     7     8    10
 0.1163904390     2     7     9     1
 0.0000000004     2     7     9     2
 -0.0093742566     2     7     9     3
 0.0000000001     2     7     9     4
 -0.0011637167     2     7     9     5
 0.0000000020     2     7     9    10
 0.0000000025     2     7    10     8
 0.0000000024     2     7    10     9
 -0.0003039608     2     8     1     6
 -0.0003182424     2     8     1     7
 -0.0036951013     2     8     3     6
 -0.0038687159     2     8     3     7
 0.0000000001     2     8     4     7
 0.0010106680     2     8     5     6
 0.0010581544     2     8     5     7
 0.1160668445     2     8     6     1
 0.0000000003     2     8     6     2
 -0.0142617855     2     8     6     3
 0.0000000001     2     8     6     4
 0.0001129568     2     8     6     5
 -0.0000000005     2     8     6    10
 0.1215202558     2     8     7     1
 0.0000000004     2     8     7     2
 -0.0149318767     2     8     7     3
 0.0000000002     2     8     7     4
 0.0001182641     2     8     7     5
 -0.0000000005     2     8     7    10
 0.0000000001     2     8     8     1
 -0.5564606971     2     8     8     2
 -0.0000000007     2     8     8     3
 0.0150101128     2     8     8     4
 -0.0000000004     2     8     8     5
 -0.0039649275     2     8     8    10
 0.0000000001     2     8     9     5
 -0.0000000024     2     8    10     6
 -0.0000000025     2     8    10     7
 0.0003182424     2     9     1     6
 -0.0003039608     2     9     1     7
 0.0038687159     2     9     3     6
 -0.0036951013     2     9     3     7
 -0.0010581544     2     9     5     6
 0.0010106680     2     9     5     7
 -0.1215202559     2     9     6     1
 -0.0000000004     2     9     6     2
 0.0149318768     2     9     6     3
 -0.0000000002     2     9     6     4
 -0.0001182642     2     9     6     5
 0.0000000005     2     9     6    10
 0.1160668446     2     9     7     1
 0.0000000004     2     9     7     2
 -0.0142617855     2     9     7     3
 0.0000000002     2     9     7     4
 0.0001129569     2     9     7     5
 -0.0000000004     2     9     7    10
 0.0000000001     2     9     8     5
 0.0000000001     2     9     9     1
 -0.5564606971     2     9     9     2
 -0.0000000007     2     9     9     3
 0.0150101128     2     9     9     4
 -0.0000000004     2     9     9     5
 -0.0039649275     2     9     9    10
 0.0000000025     2     9    10     6
 -0.0000000024     2     9    10     7
 0.0014308073     2    10     1     1
 0.0000559423     2    10     1     3
 -0.0001043322     2    10     1     5
 0.0410306354     2    10     3     1
 0.0000000002     2    10     3     2
 0.0028614612     2    10     3     3
 -0.0000000002     2    10     3     4
 -0.0019916706     2    10     3     5
 0.0000000047     2    10     4     1
 0.0809618374     2    10     4     2
 -0.0000000009     2    10     4     3
 0.0002914298     2    10     4     4
 0.0000000004     2    10     4     5
 0.0230628983     2    10     5     1
 0.0000000014     2    10     5     2
 -0.0041389254     2    10     5     3
 0.0000000008     2    10     5     4
 0.0043649329     2    10     5     5
 0.0057170609     2    10     6     6
 0.0000000005     2    10     6     8
 -0.0000000005     2    10     6     9
 0.0057170608     2    10     7     7
 0.0000000005     2    10     7     8
 0.0000000004     2    10     7     9
 -0.0000000020     2    10     8     6
 -0.0000000021     2    10     8     7
 0.0039649275     2    10     8     8
 0.0000000021     2    10     9     6
 -0.0000000020     2    10     9     7
 0.0039649275     2    10     9     9
 -0.0000000021     2    10    10     1
 -0.2591974773     2    10    10     2
 -0.0000000257     2    10    10     3
 -0.0002623951     2    10    10     4
 -0.0000000200     2    10    10     5
 -0.8025747930     3     1     1     3
 0.0000000002     3     1     1     4
 0.1042548709     3     1     1     5
 0.0000000002     3     1     1    10
 0.0104469998     3     1     2     2
 0.0000000001     3     1     2     3
 -0.1444063350     3     1     2     4
 0.0000000002     3     1     2     5
 0.0410306354     3     1     2    10
 -0.0003439982     3     1     4     2
 0.0000000003     3     1     4     3
 -0.0093094080     3     1     4     4
 -0.0000000006     3     1     4     5
 0.0008157337     3     1     4    10
 -0.0000000001     3     1     5     2
 0.0221896152     3     1     5     3
 -0.0000000002     3     1     5     4
 -0.0247552257     3     1     5     5
 0.0000000005     3     1     5    10
 -0.0178494150     3     1     6     6
 -0.0000000001     3     1     6     8
 0.0000000001     3     1     6     9
 -0.0178494151     3     1     7     7
 -0.0000000001     3     1     7     8
 -0.0000000001     3     1     7     9
 -0.0000000001     3     1     8     6
 -0.0000000002     3     1     8     7
 -0.0117501374     3     1     8     8
 0.0000000002     3     1     9     6
 -0.0000000001     3     1     9     7
 -0.0117501374     3     1     9     9
 0.0000559423     3     1    10     2
 -0.0000000002     3     1    10     3
 0.0012625543     3     1    10     4
 0.0000000009     3     1    10     5
 -0.0009627643     3     1    10    10
 0.0000000001     3     2     1     3
 -0.1440610936     3     2     1     4
 0.0000000003     3     2     1     5
 0.0409907683     3     2     1    10
 -0.0104469998     3     2     2     1
 -0.8028263372     3     2     2     3
 0.0000000002     3     2     2     4
 0.1048883281     3     2     2     5
 0.0000000002     3     2     2    10
 0.0003439982     3     2     4     1
 0.0129280528     3     2     4     3
 -0.0232871305     3     2     4     5
 0.0000000009     3     2     4    10
 0.0000000001     3     2     5     1
 0.0000000004     3     2     5     3
 -0.0174400045     3     2     5     4
 -0.0000000006     3     2     5     5
 0.0018609762     3     2     5    10
 0.0000000004     3     2     6     6
 0.0093742567     3     2     6     8
 -0.0098147069     3     2     6     9
 0.0000000004     3     2     7     7
 0.0098147069     3     2     7     8
 0.0093742566     3     2     7     9
 0.0142617855     3     2     8     6
 0.0149318767     3     2     8     7
 0.0000000007     3     2     8     8
 -0.0149318768     3     2     9     6
 0.0142617855     3     2     9     7
 0.0000000007     3     2     9     9
 -0.0000559423     3     2    10     1
 -0.0028614612     3     2    10     3
 0.0000000009     3     2    10     4
 0.0041389254     3     2    10     5
 0.0000000257     3     2    10    10
 0.8025747930     3     3     1     1
 -0.0000000001     3     3     1     2
 -0.0000000003     3     3     1     4
 -0.0221896152     3     3     1     5
 0.0000000002     3     3     1    10
 -0.0000000001     3     3     2     1
 0.8028263372     3     3     2     2
 -0.0129280528     3     3     2     4
 -0.0000000004     3     3     2     5
 0.0028614612     3     3     2    10
 -0.0000000003     3     3     4     1
 -0.0129280528     3     3     4     2
 0.4642458648     3     3     4     4
 -0.0000000018     3     3     4     5
 -0.0467680778     3     3     4    10
 -0.0221896152     3     3     5     1
 -0.0000000004     3     3     5     2
 -0.0000000018     3     3     5     4
 0.4978576826     3     3     5     5
 0.0000000019     3     3     5    10
 0.5349711103     3     3     6     6
 -0.0000000001     3     3     6     8
 0.0000000001     3     3     6     9
 0.5349711103     3     3     7     7
 -0.0000000002     3     3     7     8
 -0.0000000002     3     3     7     9
 -0.0000000001     3     3     8     6
 -0.0000000002     3     3     8     7
 0.4653750405     3     3     8     8
 0.0000000001     3     3     9     6
 -0.0000000002     3     3     9     7
 0.4653750405     3     3     9     9
 0.0000000002     3     3    10     1
 0.0028614612     3     3    10     2
 -0.0467680778     3     3    10     4
 0.0000000019     3     3    10     5
 0.2387358493     3     3    10    10
 -0.0000000002     3     4     1     1
 0.1440610936     3     4     1     2
 0.0000000003     3     4     1     3
 -0.0000000003     3     4     1     5
 -0.0003079258     3     4     1    10
 0.1444063350     3     4     2     1
 -0.0000000002     3     4     2     2
 0.0129280528     3     4     2     3
 -0.0058412497     3     4     2     5
 -0.0000000002     3     4     2    10
 0.0093094080     3     4     4     1
 -0.4642458648     3     4     4     3
 0.0976983636     3     4     4     5
 -0.0000000006     3     4     4    10
 0.0000000002     3     4     5     1
 0.0174400045     3     4     5     2
 0.0000000018     3     4     5     3
 -0.0000000011     3     4     5     5
 0.0133210399     3     4     5    10
 -0.0000000010     3     4     6     6
 -0.0263154432     3     4     6     8
 0.0275518767     3     4     6     9
 -0.0000000009     3     4     7     7
 -0.0275518768     3     4     7     8
 -0.0263154433     3     4     7     9
 -0.0096257985     3     4     8     6
 -0.0100780675     3     4     8     7
 0.0100780675     3     4     9     6
 -0.0096257985     3     4     9     7
 -0.0012625543     3     4    10     1
 -0.0000000009     3     4    10     2
 0.0467680778     3     4    10     3
 -0.0103098584     3     4    10     5
 -0.0000000208     3     4    10    10
 -0.1042548709     3     5     1     1
 -0.0000000003     3     5     1     2
 0.0221896152     3     5     1     3
 0.0000000003     3     5     1     4
 -0.0000000002     3     5     1    10
 -0.0000000002     3     5     2     1
 -0.1048883281     3     5     2     2
 0.0000000004     3     5     2     3
 0.0058412497     3     5     2     4
 -0.0019916706     3     5     2    10
 0.0000000006     3     5     4     1
 0.0232871305     3     5     4     2
 0.0000000018     3     5     4     3
 -0.0976983636     3     5     4     4
 0.0243838470     3     5     4    10