&FCI NORB= 10,NELEC= 14,MS2=0,
 ORBSYM=1,1,1,1,1,1,1,1,1,1
 ISYM=1,
&END
 0.2785157205     1     1     2     2
 0.0000000126     1     1     2     3
 -0.0009124375     1     1     2     4
 -0.0000000830     1     1     2     5
 0.0048128825     1     1     2    10
 0.0000000126     1     1     3     2
 0.5958970167     1     1     3     3
 -0.0000096423     1     1     3     4
 -0.0236935932     1     1     3     5
 -0.0000026921     1     1     3    10
 -0.0009124375     1     1     4     2
 -0.0000096423     1     1     4     3
 0.5946575341     1     1     4     4
 -0.0000041282     1     1     4     5
 0.0511890936     1     1     4    10
 -0.0000000830     1     1     5     2
 -0.0236935932     1     1     5     3
 -0.0000041282     1     1     5     4
 0.5957312155     1     1     5     5
 0.0000078290     1     1     5    10
 0.5788474737     1     1     6     6
 -0.0000000003     1     1     6     7
 -0.0000056688     1     1     6     8
 -0.0000065938     1     1     6     9
 -0.0000000003     1     1     7     6
 0.5788474737     1     1     7     7
 -0.0000065936     1     1     7     8
 0.0000056692     1     1     7     9
 -0.0000056688     1     1     8     6
 -0.0000065936     1     1     8     7
 0.5672591080     1     1     8     8
 -0.0000065938     1     1     9     6
 0.0000056692     1     1     9     7
 0.5672591080     1     1     9     9
 0.0048128825     1     1    10     2
 -0.0000026921     1     1    10     3
 0.0511890936     1     1    10     4
 0.0000078290     1     1    10     5
 0.5912654011     1     1    10    10
 -0.2785157205     1     2     2     1
 -0.0007974706     1     2     2     3
 -0.0000000145     1     2     2     4
 0.0052690356     1     2     2     5
 0.0000000759     1     2     2    10
 -0.0000000126     1     2     3     1
 -0.0000000100     1     2     3     3
 0.3057059989     1     2     3     4
 -0.0000000007     1     2     3     5
 0.0853477970     1     2     3    10
 0.0009124375     1     2     4     1
 0.3057216153     1     2     4     3
 0.0000000091     1     2     4     4
 0.1308585822     1     2     4     5
 0.0000000014     1     2     4    10
 0.0000000830     1     2     5     1
 -0.0000000007     1     2     5     3
 0.1308996479     1     2     5     4
 -0.0000000050     1     2     5     5
 -0.2483010237     1     2     5    10
 -0.0000000050     1     2     6     6
 0.0000000006     1     2     6     7
 0.1797655429     1     2     6     8
 0.2090885331     1     2     6     9
 0.0000000006     1     2     7     6
 -0.0000000052     1     2     7     7
 0.2090885330     1     2     7     8
 -0.1797655431     1     2     7     9
 0.1797064470     1     2     8     6
 0.2090197975     1     2     8     7
 0.0000000034     1     2     8     8
 0.2090197976     1     2     9     6
 -0.1797064472     1     2     9     7
 0.0000000034     1     2     9     9
 -0.0048128825     1     2    10     1
 0.0853146204     1     2    10     3
 0.0000000014     1     2    10     4
 -0.2481240654     1     2    10     5
 0.0000000040     1     2    10    10
 -0.0000000126     1     3     2     1
 0.0007974706     1     3     2     2
 -0.0000149116     1     3     2     4
 0.0000324507     1     3     2    10
 -0.5958970167     1     3     3     1
 0.0000000100     1     3     3     2
 -0.0000000135     1     3     3     4
 0.0054498439     1     3     3     5
 0.0000000868     1     3     3    10
 0.0000096423     1     3     4     1
 -0.3057216153     1     3     4     2
 -0.0012981777     1     3     4     4
 0.0000000911     1     3     4     5
 0.0051926041     1     3     4    10
 0.0236935932     1     3     5     1
 0.0000000007     1     3     5     2
 0.0000000903     1     3     5     4
 -0.0206484856     1     3     5     5
 -0.0000003053     1     3     5    10
 -0.0193996039     1     3     6     6
 0.0000001928     1     3     6     8
 0.0000002242     1     3     6     9
 -0.0193996040     1     3     7     7
 0.0000002243     1     3     7     8
 -0.0000001928     1     3     7     9
 0.0000001668     1     3     8     6
 0.0000001940     1     3     8     7
 -0.0173173854     1     3     8     8
 0.0000001940     1     3     9     6
 -0.0000001668     1     3     9     7
 -0.0173173854     1     3     9     9
 0.0000026921     1     3    10     1
 -0.0853146204     1     3    10     2
 0.0042319026     1     3    10     4
 -0.0000002410     1     3    10     5
 -0.0163979410     1     3    10    10
 0.0009124375     1     4     2     1
 0.0000000145     1     4     2     2
 0.0000149116     1     4     2     3
 -0.0000399471     1     4     2     5
 0.0000096423     1     4     3     1
 -0.3057059989     1     4     3     2
 0.0000000135     1     4     3     3
 0.0000000002     1     4     3     5
 0.0006311277     1     4     3    10
 -0.5946575341     1     4     4     1
 -0.0000000091     1     4     4     2
 0.0012981777     1     4     4     3
 -0.0015389476     1     4     4     5
 -0.0000000285     1     4     4    10
 0.0000041282     1     4     5     1
 -0.1308996479     1     4     5     2
 -0.0000000903     1     4     5     3
 0.0000003113     1     4     5     5
 0.0189413991     1     4     5    10
 0.0000003142     1     4     6     6
 -0.0115203987     1     4     6     8
 -0.0133995827     1     4     6     9
 0.0000003143     1     4     7     7
 -0.0133995827     1     4     7     8
 0.0115203987     1     4     7     9
 -0.0110496159     1     4     8     6
 -0.0128520067     1     4     8     7
 0.0000003037     1     4     8     8
 -0.0128520067     1     4     9     6
 0.0110496159     1     4     9     7
 0.0000003037     1     4     9     9
 -0.0511890936     1     4    10     1
 -0.0000000014     1     4    10     2
 -0.0042319026     1     4    10     3
 0.0159183314     1     4    10     5
 0.0000003215     1     4    10    10
 0.0000000830     1     5     2     1
 -0.0052690356     1     5     2     2
 0.0000399471     1     5     2     4
 -0.0001809306     1     5     2    10
 0.0236935932     1     5     3     1
 0.0000000007     1     5     3     2
 -0.0054498439     1     5     3     3
 -0.0000000002     1     5     3     4
 -0.0000000478     1     5     3    10
 0.0000041282     1     5     4     1
 -0.1308585822     1     5     4     2
 -0.0000000911     1     5     4     3
 0.0015389476     1     5     4     4
 0.0016891591     1     5     4    10
 -0.5957312155     1     5     5     1
 0.0000000050     1     5     5     2
 0.0206484856     1     5     5     3
 -0.0000003113     1     5     5     4
 -0.0000000381     1     5     5    10
 -0.0057485770     1     5     6     6
 0.0000000046     1     5     6     8
 0.0000000055     1     5     6     9
 -0.0057485770     1     5     7     7
 0.0000000054     1     5     7     8
 -0.0000000048     1     5     7     9
 0.0000000110     1     5     8     6
 0.0000000128     1     5     8     7
 -0.0047845904     1     5     8     8
 0.0000000128     1     5     9     6
 -0.0000000110     1     5     9     7
 -0.0047845904     1     5     9     9
 -0.0000078290     1     5    10     1
 0.2481240654     1     5    10     2
 0.0000002410     1     5    10     3
 -0.0159183314     1     5    10     4
 -0.0114228057     1     5    10    10
 0.0000577218     1     6     2     8
 0.0000671373     1     6     2     9
 0.0000000165     1     6     3     8
 0.0000000191     1     6     3     9
 0.0002597442     1     6     4     8
 0.0003021132     1     6     4     9
 -0.0000000083     1     6     5     8
 -0.0000000097     1     6     5     9
 -0.5788474737     1     6     6     1
 0.0000000050     1     6     6     2
 0.0193996039     1     6     6     3
 -0.0000003142     1     6     6     4
 0.0057485770     1     6     6     5
 -0.0000000450     1     6     6    10
 0.0000000003     1     6     7     1
 -0.0000000006     1     6     7     2
 0.0000000001     1     6     7    10
 0.0000056688     1     6     8     1
 -0.1797064470     1     6     8     2
 -0.0000001668     1     6     8     3
 0.0110496159     1     6     8     4
 -0.0000000110     1     6     8     5
 0.0049220830     1     6     8    10
 0.0000065938     1     6     9     1
 -0.2090197976     1     6     9     2
 -0.0000001940     1     6     9     3
 0.0128520067     1     6     9     4
 -0.0000000128     1     6     9     5
 0.0057249631     1     6     9    10
 0.0000935727     1     6    10     8
 0.0001088361     1     6    10     9
 0.0000671373     1     7     2     8
 -0.0000577218     1     7     2     9
 0.0000000191     1     7     3     8
 -0.0000000164     1     7     3     9
 0.0003021132     1     7     4     8
 -0.0002597442     1     7     4     9
 -0.0000000097     1     7     5     8
 0.0000000083     1     7     5     9
 0.0000000003     1     7     6     1
 -0.0000000006     1     7     6     2
 0.0000000001     1     7     6    10
 -0.5788474737     1     7     7     1
 0.0000000052     1     7     7     2
 0.0193996040     1     7     7     3
 -0.0000003143     1     7     7     4
 0.0057485770     1     7     7     5
 -0.0000000450     1     7     7    10
 0.0000065936     1     7     8     1
 -0.2090197975     1     7     8     2
 -0.0000001940     1     7     8     3
 0.0128520067     1     7     8     4
 -0.0000000128     1     7     8     5
 0.0057249631     1     7     8    10
 -0.0000056692     1     7     9     1
 0.1797064472     1     7     9     2
 0.0000001668     1     7     9     3
 -0.0110496159     1     7     9     4
 0.0000000110     1     7     9     5
 -0.0049220830     1     7     9    10
 0.0001088361     1     7    10     8
 -0.0000935727     1     7    10     9
 -0.0000577218     1     8     2     6
 -0.0000671373     1     8     2     7
 -0.0000000165     1     8     3     6
 -0.0000000191     1     8     3     7
 -0.0002597442     1     8     4     6
 -0.0003021132     1     8     4     7
 0.0000000083     1     8     5     6
 0.0000000097     1     8     5     7
 0.0000056688     1     8     6     1
 -0.1797655429     1     8     6     2
 -0.0000001928     1     8     6     3
 0.0115203987     1     8     6     4
 -0.0000000046     1     8     6     5
 0.0050206072     1     8     6    10
 0.0000065936     1     8     7     1
 -0.2090885330     1     8     7     2
 -0.0000002243     1     8     7     3
 0.0133995827     1     8     7     4
 -0.0000000054     1     8     7     5
 0.0058395583     1     8     7    10
 -0.5672591080     1     8     8     1
 -0.0000000034     1     8     8     2
 0.0173173854     1     8     8     3
 -0.0000003037     1     8     8     4
 0.0047845904     1     8     8     5
 -0.0000000705     1     8     8    10
 -0.0000935727     1     8    10     6
 -0.0001088361     1     8    10     7
 -0.0000671373     1     9     2     6
 0.0000577218     1     9     2     7
 -0.0000000191     1     9     3     6
 0.0000000164     1     9     3     7
 -0.0003021132     1     9     4     6
 0.0002597442     1     9     4     7
 0.0000000097     1     9     5     6
 -0.0000000083     1     9     5     7
 0.0000065938     1     9     6     1
 -0.2090885331     1     9     6     2
 -0.0000002242     1     9     6     3
 0.0133995827     1     9     6     4
 -0.0000000055     1     9     6     5
 0.0058395583     1     9     6    10
 -0.0000056692     1     9     7     1
 0.1797655431     1     9     7     2
 0.0000001928     1     9     7     3
 -0.0115203987     1     9     7     4
 0.0000000048     1     9     7     5
 -0.0050206072     1     9     7    10
 -0.5672591080     1     9     9     1
 -0.0000000034     1     9     9     2
 0.0173173854     1     9     9     3
 -0.0000003037     1     9     9     4
 0.0047845904     1     9     9     5
 -0.0000000702     1     9     9    10
 -0.0001088361     1     9    10     6
 0.0000935727     1     9    10     7
 -0.0048128825     1    10     2     1
 -0.0000000759     1    10     2     2
 -0.0000324507     1    10     2     3
 0.0001809306     1    10     2     5
 0.0000026921     1    10     3     1
 -0.0853477970     1    10     3     2
 -0.0000000868     1    10     3     3
 -0.0006311277     1    10     3     4
 0.0000000478     1    10     3     5
 -0.0511890936     1    10     4     1
 -0.0000000014     1    10     4     2
 -0.0051926041     1    10     4     3
 0.0000000285     1    10     4     4
 -0.0016891591     1    10     4     5
 -0.0000078290     1    10     5     1
 0.2483010237     1    10     5     2
 0.0000003053     1    10     5     3
 -0.0189413991     1    10     5     4
 0.0000000381     1    10     5     5
 0.0000000450     1    10     6     6
 -0.0000000001     1    10     6     7
 -0.0050206072     1    10     6     8
 -0.0058395583     1    10     6     9
 -0.0000000001     1    10     7     6
 0.0000000450     1    10     7     7
 -0.0058395583     1    10     7     8
 0.0050206072     1    10     7     9
 -0.0049220830     1    10     8     6
 -0.0057249631     1    10     8     7
 0.0000000705     1    10     8     8
 -0.0057249631     1    10     9     6
 0.0049220830     1    10     9     7
 0.0000000702     1    10     9     9
 -0.5912654011     1    10    10     1
 -0.0000000040     1    10    10     2
 0.0163979410     1    10    10     3
 -0.0000003215     1    10    10     4
 0.0114228057     1    10    10     5
 -0.2785157205     2     1     1     2
 -0.0000000126     2     1     1     3
 0.0009124375     2     1     1     4
 0.0000000830     2     1     1     5
 -0.0048128825     2     1     1    10
 -0.0007974706     2     1     3     2
 -0.0000000100     2     1     3     3
 0.3057216153     2     1     3     4
 -0.0000000007     2     1     3     5
 0.0853146204     2     1     3    10
 -0.0000000145     2     1     4     2
 0.3057059989     2     1     4     3
 0.0000000091     2     1     4     4
 0.1308996479     2     1     4     5
 0.0000000014     2     1     4    10
 0.0052690356     2     1     5     2
 -0.0000000007     2     1     5     3
 0.1308585822     2     1     5     4
 -0.0000000050     2     1     5     5
 -0.2481240654     2     1     5    10
 -0.0000000050     2     1     6     6
 0.0000000006     2     1     6     7
 0.1797064470     2     1     6     8
 0.2090197976     2     1     6     9
 0.0000000006     2     1     7     6
 -0.0000000052     2     1     7     7
 0.2090197975     2     1     7     8
 -0.1797064472     2     1     7     9
 0.1797655429     2     1     8     6
 0.2090885330     2     1     8     7
 0.0000000034     2     1     8     8
 0.2090885331     2     1     9     6
 -0.1797655431     2     1     9     7
 0.0000000034     2     1     9     9
 0.0000000759     2     1    10     2
 0.0853477970     2     1    10     3
 0.0000000014     2     1    10     4
 -0.2483010237     2     1    10     5
 0.0000000040     2     1    10    10
 0.2785157205     2     2     1     1
 0.0007974706     2     2     1     3
 0.0000000145     2     2     1     4
 -0.0052690356     2     2     1     5
 -0.0000000759     2     2     1    10
 0.0007974706     2     2     3     1
 0.5958826459     2     2     3     3
 0.0000096420     2     2     3     4
 -0.0237044561     2     2     3     5
 0.0000026906     2     2     3    10
 0.0000000145     2     2     4     1
 0.0000096420     2     2     4     3
 0.5946617697     2     2     4     4
 0.0000041276     2     2     4     5
 0.0512040839     2     2     4    10
 -0.0052690356     2     2     5     1
 -0.0237044561     2     2     5     3
 0.0000041276     2     2     5     4
 0.5959296498     2     2     5     5
 -0.0000078281     2     2     5    10
 0.5789472326     2     2     6     6
 -0.0000000003     2     2     6     7
 0.0000056689     2     2     6     8
 0.0000065933     2     2     6     9
 -0.0000000003     2     2     7     6
 0.5789472326     2     2     7     7
 0.0000065935     2     2     7     8
 -0.0000056685     2     2     7     9
 0.0000056689     2     2     8     6
 0.0000065935     2     2     8     7
 0.5671913776     2     2     8     8
 0.0000065933     2     2     9     6
 -0.0000056685     2     2     9     7
 0.5671913776     2     2     9     9
 -0.0000000759     2     2    10     1
 0.0000026906     2     2    10     3
 0.0512040839     2     2    10     4
 -0.0000078281     2     2    10     5
 0.5910957216     2     2    10    10
 0.0000000126     2     3     1     1
 -0.0007974706     2     3     1     2
 0.0000149116     2     3     1     4
 -0.0000324507     2     3     1    10
 0.0000000100     2     3     3     1
 -0.5958826459     2     3     3     2
 0.0008543938     2     3     3     4
 0.0000000860     2     3     3     5
 -0.0055143759     2     3     3    10
 -0.3057059989     2     3     4     1
 -0.0000096420     2     3     4     2
 -0.0000000204     2     3     4     4
 -0.0057591093     2     3     4     5
 0.0000000817     2     3     4    10
 0.0000000007     2     3     5     1
 0.0237044561     2     3     5     2
 -0.0057220755     2     3     5     4
 -0.0000003251     2     3     5     5
 0.0193399669     2     3     5    10
 -0.0000003053     2     3     6     6
 -0.0000000001     2     3     6     7
 -0.0122113486     2     3     6     8
 -0.0142032390     2     3     6     9
 -0.0000000001     2     3     7     6
 -0.0000003053     2     3     7     7
 -0.0142032390     2     3     7     8
 0.0122113486     2     3     7     9
 -0.0105635342     2     3     8     6
 -0.0122866364     2     3     8     7
 -0.0000002729     2     3     8     8
 -0.0122866364     2     3     9     6
 0.0105635343     2     3     9     7
 -0.0000002730     2     3     9     9
 -0.0853477970     2     3    10     1
 -0.0000026906     2     3    10     2
 0.0000000667     2     3    10     4
 0.0152644361     2     3    10     5
 -0.0000002584     2     3    10    10
 -0.0009124375     2     4     1     1
 -0.0000000145     2     4     1     2
 -0.0000149116     2     4     1     3
 0.0000399471     2     4     1     5
 -0.3057216153     2     4     3     1
 -0.0000096420     2     4     3     2
 -0.0008543938     2     4     3     3
 -0.0000028886     2     4     3     5
 0.0000000098     2     4     3    10
 -0.0000000091     2     4     4     1
 -0.5946617697     2     4     4     2
 0.0000000204     2     4     4     3
 -0.0000000243     2     4     4     5
 0.0018124465     2     4     4    10
 -0.1308585822     2     4     5     1
 -0.0000041276     2     4     5     2
 0.0057220755     2     4     5     3
 -0.0197531702     2     4     5     5
 0.0000002990     2     4     5    10
 -0.0199318538     2     4     6     6
 -0.0000001819     2     4     6     8
 -0.0000002115     2     4     6     9
 -0.0199318538     2     4     7     7
 -0.0000002115     2     4     7     8
 0.0000001818     2     4     7     9
 -0.0000001744     2     4     8     6
 -0.0000002029     2     4     8     7
 -0.0192786454     2     4     8     8
 -0.0000002028     2     4     9     6
 0.0000001744     2     4     9     7
 -0.0192786454     2     4     9     9
 -0.0000000014     2     4    10     1
 -0.0512040839     2     4    10     2
 -0.0000000667     2     4    10     3
 0.0000002512     2     4    10     5
 -0.0204040444     2     4    10    10
 -0.0000000830     2     5     1     1
 0.0052690356     2     5     1     2
 -0.0000399471     2     5     1     4
 0.0001809306     2     5     1    10
 0.0000000007     2     5     3     1
 0.0237044561     2     5     3     2
 -0.0000000860     2     5     3     3
 0.0000028886     2     5     3     4
 0.0030299044     2     5     3    10
 -0.1308996479     2     5     4     1
 -0.0000041276     2     5     4     2
 0.0057591093     2     5     4     3
 0.0000000243     2     5     4     4
 0.0000000267     2     5     4    10
 0.0000000050     2     5     5     1
 -0.5959296498     2     5     5     2
 0.0000003251     2     5     5     3
 0.0197531702     2     5     5     4
 0.0024146866     2     5     5    10
 -0.0000000907     2     5     6     6
 0.0000000001     2     5     6     7
 -0.0003016889     2     5     6     8
 -0.0003508997     2     5     6     9
 0.0000000001     2     5     7     6
 -0.0000000907     2     5     7     7
 -0.0003508997     2     5     7     8
 0.0003016888     2     5     7     9
 -0.0007017863     2     5     8     6
 -0.0008162602     2     5     8     7
 -0.0000000756     2     5     8     8
 -0.0008162602     2     5     9     6
 0.0007017862     2     5     9     7
 -0.0000000754     2     5     9     9
 0.2483010237     2     5    10     1
 0.0000078281     2     5    10     2
 -0.0152644361     2     5    10     3
 -0.0000002512     2     5    10     4
 -0.0000001801     2     5    10    10
 -0.0000577218     2     6     1     8
 -0.0000671373     2     6     1     9
 -0.0010421123     2     6     3     8
 -0.0012120995     2     6     3     9
 0.0000000041     2     6     4     8
 0.0000000047     2     6     4     9
 0.0005259964     2     6     5     8
 0.0006117959     2     6     5     9
 0.0000000050     2     6     6     1
 -0.5789472326     2     6     6     2
 0.0000003053     2     6     6     3
 0.0199318538     2     6     6     4
 0.0000000907     2     6     6     5
 0.0028486271     2     6     6    10
 -0.0000000006     2     6     7     1
 0.0000000003     2     6     7     2
 0.0000000001     2     6     7     3
 -0.0000000001     2     6     7     5
 -0.1797655429     2     6     8     1
 -0.0000056689     2     6     8     2
 0.0105635342     2     6     8     3
 0.0000001744     2     6     8     4
 0.0007017863     2     6     8     5
 0.0000000775     2     6     8    10
 -0.2090885331     2     6     9     1
 -0.0000065933     2     6     9     2
 0.0122866364     2     6     9     3
 0.0000002028     2     6     9     4
 0.0008162602     2     6     9     5
 0.0000000903     2     6     9    10
 0.0000000015     2     6    10     8
 0.0000000018     2     6    10     9
 -0.0000671373     2     7     1     8
 0.0000577218     2     7     1     9
 -0.0012120995     2     7     3     8
 0.0010421123     2     7     3     9
 0.0000000047     2     7     4     8
 -0.0000000041     2     7     4     9
 0.0006117959     2     7     5     8
 -0.0005259964     2     7     5     9
 -0.0000000006     2     7     6     1
 0.0000000003     2     7     6     2
 0.0000000001     2     7     6     3
 -0.0000000001     2     7     6     5
 0.0000000052     2     7     7     1
 -0.5789472326     2     7     7     2
 0.0000003053     2     7     7     3
 0.0199318538     2     7     7     4
 0.0000000907     2     7     7     5
 0.0028486271     2     7     7    10
 -0.2090885330     2     7     8     1
 -0.0000065935     2     7     8     2
 0.0122866364     2     7     8     3
 0.0000002029     2     7     8     4
 0.0008162602     2     7     8     5
 0.0000000902     2     7     8    10
 0.1797655431     2     7     9     1
 0.0000056685     2     7     9     2
 -0.0105635343     2     7     9     3
 -0.0000001744     2     7     9     4
 -0.0007017862     2     7     9     5
 -0.0000000777     2     7     9    10
 0.0000000016     2     7    10     8
 -0.0000000015     2     7    10     9
 0.0000577218     2     8     1     6
 0.0000671373     2     8     1     7
 0.0010421123     2     8     3     6
 0.0012120995     2     8     3     7
 -0.0000000041     2     8     4     6
 -0.0000000047     2     8     4     7
 -0.0005259964     2     8     5     6
 -0.0006117959     2     8     5     7
 -0.1797064470     2     8     6     1
 -0.0000056689     2     8     6     2
 0.0122113486     2     8     6     3
 0.0000001819     2     8     6     4
 0.0003016889     2     8     6     5
 0.0000000791     2     8     6    10
 -0.2090197975     2     8     7     1
 -0.0000065935     2     8     7     2
 0.0142032390     2     8     7     3
 0.0000002115     2     8     7     4
 0.0003508997     2     8     7     5
 0.0000000921     2     8     7    10
 -0.0000000034     2     8     8     1
 -0.5671913776     2     8     8     2
 0.0000002729     2     8     8     3
 0.0192786454     2     8     8     4
 0.0000000756     2     8     8     5
 0.0044629966     2     8     8    10
 -0.0000000015     2     8    10     6
 -0.0000000016     2     8    10     7
 0.0000671373     2     9     1     6
 -0.0000577218     2     9     1     7
 0.0012120995     2     9     3     6
 -0.0010421123     2     9     3     7
 -0.0000000047     2     9     4     6
 0.0000000041     2     9     4     7
 -0.0006117959     2     9     5     6
 0.0005259964     2     9     5     7
 -0.2090197976     2     9     6     1
 -0.0000065933     2     9     6     2
 0.0142032390     2     9     6     3
 0.0000002115     2     9     6     4
 0.0003508997     2     9     6     5
 0.0000000921     2     9     6    10
 0.1797064472     2     9     7     1
 0.0000056685     2     9     7     2
 -0.0122113486     2     9     7     3
 -0.0000001818     2     9     7     4
 -0.0003016888     2     9     7     5
 -0.0000000791     2     9     7    10
 -0.0000000034     2     9     9     1
 -0.5671913776     2     9     9     2
 0.0000002730     2     9     9     3
 0.0192786454     2     9     9     4
 0.0000000754     2     9     9     5
 0.0044629966     2     9     9    10
 -0.0000000018     2     9    10     6
 0.0000000015     2     9    10     7
 0.0048128825     2    10     1     1
 0.0000000759     2    10     1     2
 0.0000324507     2    10     1     3
 -0.0001809306     2    10     1     5
 -0.0853146204     2    10     3     1
 -0.0000026906     2    10     3     2
 0.0055143759     2    10     3     3
 -0.0000000098     2    10     3     4
 -0.0030299044     2    10     3     5
 -0.0000000014     2    10     4     1
 -0.0512040839     2    10     4     2
 -0.0000000817     2    10     4     3
 -0.0018124465     2    10     4     4
 -0.0000000267     2    10     4     5
 0.2481240654     2    10     5     1
 0.0000078281     2    10     5     2
 -0.0193399669     2    10     5     3
 -0.0000002990     2    10     5     4
 -0.0024146866     2    10     5     5
 -0.0028486271     2    10     6     6
 -0.0000000791     2    10     6     8
 -0.0000000921     2    10     6     9
 -0.0028486271     2    10     7     7
 -0.0000000921     2    10     7     8
 0.0000000791     2    10     7     9
 -0.0000000775     2    10     8     6
 -0.0000000902     2    10     8     7
 -0.0044629966     2    10     8     8
 -0.0000000903     2    10     9     6
 0.0000000777     2    10     9     7
 -0.0044629966     2    10     9     9
 -0.0000000040     2    10    10     1
 -0.5910957216     2    10    10     2
 0.0000002584     2    10    10     3
 0.0204040444     2    10    10     4
 0.0000001801     2    10    10     5
 -0.0000000126     3     1     1     2
 -0.5958970167     3     1     1     3
 0.0000096423     3     1     1     4
 0.0236935932     3     1     1     5
 0.0000026921     3     1     1    10
 0.0007974706     3     1     2     2
 0.0000000100     3     1     2     3
 -0.3057216153     3     1     2     4
 0.0000000007     3     1     2     5
 -0.0853146204     3     1     2    10
 -0.0000149116     3     1     4     2
 -0.0000000135     3     1     4     3
 -0.0012981777     3     1     4     4
 0.0000000903     3     1     4     5
 0.0042319026     3     1     4    10
 0.0054498439     3     1     5     3
 0.0000000911     3     1     5     4
 -0.0206484856     3     1     5     5
 -0.0000002410     3     1     5    10
 -0.0193996039     3     1     6     6
 0.0000001668     3     1     6     8
 0.0000001940     3     1     6     9
 -0.0193996040     3     1     7     7
 0.0000001940     3     1     7     8
 -0.0000001668     3     1     7     9
 0.0000001928     3     1     8     6
 0.0000002243     3     1     8     7
 -0.0173173854     3     1     8     8
 0.0000002242     3     1     9     6
 -0.0000001928     3     1     9     7
 -0.0173173854     3     1     9     9
 0.0000324507     3     1    10     2
 0.0000000868     3     1    10     3
 0.0051926041     3     1    10     4
 -0.0000003053     3     1    10     5
 -0.0163979410     3     1    10    10
 0.0000000126     3     2     1     1
 0.0000000100     3     2     1     3
 -0.3057059989     3     2     1     4
 0.0000000007     3     2     1     5
 -0.0853477970     3     2     1    10
 -0.0007974706     3     2     2     1
 -0.5958826459     3     2     2     3
 -0.0000096420     3     2     2     4
 0.0237044561     3     2     2     5
 -0.0000026906     3     2     2    10
 0.0000149116     3     2     4     1
 0.0008543938     3     2     4     3
 -0.0000000204     3     2     4     4
 -0.0057220755     3     2     4     5
 0.0000000667     3     2     4    10
 0.0000000860     3     2     5     3
 -0.0057591093     3     2     5     4
 -0.0000003251     3     2     5     5
 0.0152644361     3     2     5    10
 -0.0000003053     3     2     6     6
 -0.0000000001     3     2     6     7
 -0.0105635342     3     2     6     8
 -0.0122866364     3     2     6     9
 -0.0000000001     3     2     7     6
 -0.0000003053     3     2     7     7
 -0.0122866364     3     2     7     8
 0.0105635343     3     2     7     9
 -0.0122113486     3     2     8     6
 -0.0142032390     3     2     8     7
 -0.0000002729     3     2     8     8
 -0.0142032390     3     2     9     6
 0.0122113486     3     2     9     7
 -0.0000002730     3     2     9     9
 -0.0000324507     3     2    10     1
 -0.0055143759     3     2    10     3
 0.0000000817     3     2    10     4
 0.0193399669     3     2    10     5
 -0.0000002584     3     2    10    10
 0.5958970167     3     3     1     1
 -0.0000000100     3     3     1     2
 0.0000000135     3     3     1     4
 -0.0054498439     3     3     1     5
 -0.0000000868     3     3     1    10
 -0.0000000100     3     3     2     1
 0.5958826459     3     3     2     2
 -0.0008543938     3     3     2     4
 -0.0000000860     3     3     2     5
 0.0055143759     3     3     2    10
 0.0000000135     3     3     4     1
 -0.0008543938     3     3     4     2
 0.2798453314     3     3     4     4
 -0.0000000018     3     3     4     5
 0.0112859020     3     3     4    10