&FCI NORB= 10,NELEC= 14,MS2=0,
 ORBSYM=1,1,1,1,1,1,1,1,1,1
 ISYM=1,
&END
 0.5295087483     1     1     2     2
 -0.0099961894     1     1     2     4
 0.0025413389     1     1     2    10
 0.8547271910     1     1     3     3
 -0.0000000008     1     1     3     4
 0.1189579321     1     1     3     7
 -0.0099961894     1     1     4     2
 -0.0000000008     1     1     4     3
 0.6434013240     1     1     4     4
 0.0000000002     1     1     4     7
 -0.0830155005     1     1     4    10
 0.7130260874     1     1     5     5
 0.0000000004     1     1     5     8
 -0.0000000005     1     1     5     9
 0.7130260874     1     1     6     6
 -0.0000000004     1     1     6     8
 -0.0000000003     1     1     6     9
 0.1189579321     1     1     7     3
 0.0000000002     1     1     7     4
 0.6867550301     1     1     7     7
 0.0000000001     1     1     7    10
 0.0000000004     1     1     8     5
 -0.0000000004     1     1     8     6
 0.5264932350     1     1     8     8
 -0.0000000005     1     1     9     5
 -0.0000000003     1     1     9     6
 0.5264932350     1     1     9     9
 0.0025413389     1     1    10     2
 -0.0830155005     1     1    10     4
 0.0000000001     1     1    10     7
 0.2577397839     1     1    10    10
 -0.5295087483     1     2     2     1
 0.0148778096     1     2     2     3
 0.0209568785     1     2     2     7
 0.0000000006     1     2     3     3
 -0.1208521559     1     2     3     4
 0.0322903491     1     2     3    10
 0.0099961894     1     2     4     1
 -0.1214346517     1     2     4     3
 0.0000000007     1     2     4     4
 0.2317462660     1     2     4     7
 0.0000000012     1     2     4    10
 -0.0000000001     1     2     5     5
 -0.0810885757     1     2     5     8
 0.1243196789     1     2     5     9
 -0.0000000001     1     2     6     6
 0.1243196789     1     2     6     8
 0.0810885757     1     2     6     9
 -0.0000000002     1     2     7     3
 0.2325538197     1     2     7     4
 -0.0306018582     1     2     7    10
 -0.0807700654     1     2     8     5
 0.1238313600     1     2     8     6
 -0.0000000003     1     2     8     8
 0.1238313600     1     2     9     5
 0.0807700654     1     2     9     6
 -0.0000000003     1     2     9     9
 -0.0025413389     1     2    10     1
 0.0324038257     1     2    10     3
 0.0000000012     1     2    10     4
 -0.0303866295     1     2    10     7
 -0.0000000059     1     2    10    10
 -0.0148778096     1     3     2     2
 0.0005800576     1     3     2     4
 0.0000000002     1     3     2     7
 -0.0001360442     1     3     2    10
 -0.8547271910     1     3     3     1
 -0.0000000006     1     3     3     2
 0.0000000004     1     3     3     4
 0.0259393140     1     3     3     7
 0.0000000008     1     3     4     1
 0.1214346517     1     3     4     2
 0.0110278128     1     3     4     4
 -0.0000000001     1     3     4     7
 -0.0020565597     1     3     4    10
 0.0185463942     1     3     5     5
 0.0000000001     1     3     5     8
 -0.0000000001     1     3     5     9
 0.0185463943     1     3     6     6
 -0.0000000001     1     3     6     8
 -0.0000000001     1     3     6     9
 -0.1189579321     1     3     7     1
 0.0000000002     1     3     7     2
 0.0000000002     1     3     7     4
 0.0258845226     1     3     7     7
 -0.0000000013     1     3     7    10
 0.0000000001     1     3     8     5
 -0.0000000002     1     3     8     6
 0.0098827054     1     3     8     8
 -0.0000000002     1     3     9     5
 -0.0000000001     1     3     9     6
 0.0098827054     1     3     9     9
 -0.0324038257     1     3    10     2
 -0.0016008185     1     3    10     4
 -0.0000000010     1     3    10     7
 0.0013067789     1     3    10    10
 0.0099961894     1     4     2     1
 -0.0005800576     1     4     2     3
 -0.0008055691     1     4     2     7
 0.0000000008     1     4     3     1
 0.1208521559     1     4     3     2
 -0.0000000004     1     4     3     3
 -0.0000000003     1     4     3     7
 -0.0002465345     1     4     3    10
 -0.6434013240     1     4     4     1
 -0.0000000007     1     4     4     2
 -0.0110278128     1     4     4     3
 -0.0018995483     1     4     4     7
 -0.0000000018     1     4     4    10
 0.0000000002     1     4     5     5
 0.0045613736     1     4     5     8
 -0.0069931984     1     4     5     9
 0.0000000002     1     4     6     6
 -0.0069931984     1     4     6     8
 -0.0045613735     1     4     6     9
 -0.0000000002     1     4     7     1
 -0.2325538197     1     4     7     2
 -0.0000000002     1     4     7     3
 -0.0000000001     1     4     7     7
 0.0002526859     1     4     7    10
 0.0057007552     1     4     8     5
 -0.0087400236     1     4     8     6
 -0.0000000027     1     4     8     8
 0.0000000005     1     4     8     9
 -0.0087400235     1     4     9     5
 -0.0057007552     1     4     9     6
 0.0000000005     1     4     9     8
 -0.0000000026     1     4     9     9
 0.0830155005     1     4    10     1
 -0.0000000012     1     4    10     2
 0.0016008185     1     4    10     3
 0.0003882365     1     4    10     7
 -0.0000000696     1     4    10    10
 -0.0003010946     1     5     2     8
 0.0004616185     1     5     2     9
 -0.0017488366     1     5     4     8
 0.0026812014     1     5     4     9
 -0.7130260874     1     5     5     1
 0.0000000001     1     5     5     2
 -0.0185463942     1     5     5     3
 -0.0000000002     1     5     5     4
 0.0169865151     1     5     5     7
 -0.0000000001     1     5     5    10
 -0.0000000004     1     5     8     1
 0.0807700654     1     5     8     2
 -0.0000000001     1     5     8     3
 -0.0057007552     1     5     8     4
 0.0015754835     1     5     8    10
 0.0000000005     1     5     9     1
 -0.1238313600     1     5     9     2
 0.0000000002     1     5     9     3
 0.0087400235     1     5     9     4
 -0.0024154278     1     5     9    10
 0.0001354497     1     5    10     8
 -0.0002076626     1     5    10     9
 0.0004616185     1     6     2     8
 0.0003010946     1     6     2     9
 0.0026812014     1     6     4     8
 0.0017488366     1     6     4     9
 -0.7130260874     1     6     6     1
 0.0000000001     1     6     6     2
 -0.0185463943     1     6     6     3
 -0.0000000002     1     6     6     4
 0.0169865151     1     6     6     7
 -0.0000000001     1     6     6    10
 0.0000000004     1     6     8     1
 -0.1238313600     1     6     8     2
 0.0000000002     1     6     8     3
 0.0087400236     1     6     8     4
 0.0000000001     1     6     8     7
 -0.0024154278     1     6     8    10
 0.0000000003     1     6     9     1
 -0.0807700654     1     6     9     2
 0.0000000001     1     6     9     3
 0.0057007552     1     6     9     4
 -0.0015754835     1     6     9    10
 -0.0002076626     1     6    10     8
 -0.0001354497     1     6    10     9
 -0.0209568785     1     7     2     2
 -0.0000000002     1     7     2     3
 0.0008055691     1     7     2     4
 -0.0002086809     1     7     2    10
 -0.1189579321     1     7     3     1
 -0.0259393140     1     7     3     3
 0.0000000003     1     7     3     4
 -0.0000000001     1     7     3    10
 -0.0000000002     1     7     4     1
 -0.2317462660     1     7     4     2
 0.0000000001     1     7     4     3
 0.0018995483     1     7     4     4
 -0.0000369951     1     7     4    10
 -0.0169865151     1     7     5     5
 -0.0169865151     1     7     6     6
 -0.6867550301     1     7     7     1
 -0.0258845226     1     7     7     3
 0.0000000001     1     7     7     4
 -0.0000000002     1     7     7    10
 -0.0000000001     1     7     8     6
 -0.0063674511     1     7     8     8
 -0.0063674511     1     7     9     9
 -0.0000000001     1     7    10     1
 0.0303866295     1     7    10     2
 0.0000000010     1     7    10     3
 -0.0003882365     1     7    10     4
 0.0009655393     1     7    10    10
 0.0003010946     1     8     2     5
 -0.0004616185     1     8     2     6
 0.0017488366     1     8     4     5
 -0.0026812014     1     8     4     6
 -0.0000000004     1     8     5     1
 0.0810885757     1     8     5     2
 -0.0000000001     1     8     5     3
 -0.0045613736     1     8     5     4
 0.0015242574     1     8     5    10
 0.0000000004     1     8     6     1
 -0.1243196789     1     8     6     2
 0.0000000001     1     8     6     3
 0.0069931984     1     8     6     4
 -0.0023368912     1     8     6    10
 -0.5264932350     1     8     8     1
 0.0000000003     1     8     8     2
 -0.0098827054     1     8     8     3
 0.0000000027     1     8     8     4
 0.0063674511     1     8     8     7
 -0.0000000015     1     8     8    10
 -0.0000000005     1     8     9     4
 0.0000000002     1     8     9    10
 -0.0001354497     1     8    10     5
 0.0002076626     1     8    10     6
 -0.0004616185     1     9     2     5
 -0.0003010946     1     9     2     6
 -0.0026812014     1     9     4     5
 -0.0017488366     1     9     4     6
 0.0000000005     1     9     5     1
 -0.1243196789     1     9     5     2
 0.0000000001     1     9     5     3
 0.0069931984     1     9     5     4
 -0.0023368912     1     9     5    10
 0.0000000003     1     9     6     1
 -0.0810885757     1     9     6     2
 0.0000000001     1     9     6     3
 0.0045613735     1     9     6     4
 -0.0015242573     1     9     6    10
 -0.0000000005     1     9     8     4
 0.0000000002     1     9     8    10
 -0.5264932350     1     9     9     1
 0.0000000003     1     9     9     2
 -0.0098827054     1     9     9     3
 0.0000000026     1     9     9     4
 0.0063674511     1     9     9     7
 -0.0000000014     1     9     9    10
 0.0002076626     1     9    10     5
 0.0001354497     1     9    10     6
 -0.0025413389     1    10     2     1
 0.0001360442     1    10     2     3
 0.0002086809     1    10     2     7
 -0.0322903491     1    10     3     2
 0.0002465345     1    10     3     4
 0.0000000001     1    10     3     7
 0.0830155005     1    10     4     1
 -0.0000000012     1    10     4     2
 0.0020565597     1    10     4     3
 0.0000000018     1    10     4     4
 0.0000369951     1    10     4     7
 0.0000000001     1    10     5     5
 -0.0015242574     1    10     5     8
 0.0023368912     1    10     5     9
 0.0000000001     1    10     6     6
 0.0023368912     1    10     6     8
 0.0015242573     1    10     6     9
 -0.0000000001     1    10     7     1
 0.0306018582     1    10     7     2
 0.0000000013     1    10     7     3
 -0.0002526859     1    10     7     4
 0.0000000002     1    10     7     7
 -0.0015754835     1    10     8     5
 0.0024154278     1    10     8     6
 0.0000000015     1    10     8     8
 -0.0000000002     1    10     8     9
 0.0024154278     1    10     9     5
 0.0015754835     1    10     9     6
 -0.0000000002     1    10     9     8
 0.0000000014     1    10     9     9
 -0.2577397839     1    10    10     1
 0.0000000059     1    10    10     2
 -0.0013067789     1    10    10     3
 0.0000000696     1    10    10     4
 -0.0009655393     1    10    10     7
 -0.5295087483     2     1     1     2
 0.0099961894     2     1     1     4
 -0.0025413389     2     1     1    10
 0.0148778096     2     1     3     2
 0.0000000006     2     1     3     3
 -0.1214346517     2     1     3     4
 -0.0000000002     2     1     3     7
 0.0324038257     2     1     3    10
 -0.1208521559     2     1     4     3
 0.0000000007     2     1     4     4
 0.2325538197     2     1     4     7
 0.0000000012     2     1     4    10
 -0.0000000001     2     1     5     5
 -0.0807700654     2     1     5     8
 0.1238313600     2     1     5     9
 -0.0000000001     2     1     6     6
 0.1238313600     2     1     6     8
 0.0807700654     2     1     6     9
 0.0209568785     2     1     7     2
 0.2317462660     2     1     7     4
 -0.0303866295     2     1     7    10
 -0.0810885757     2     1     8     5
 0.1243196789     2     1     8     6
 -0.0000000003     2     1     8     8
 0.1243196789     2     1     9     5
 0.0810885757     2     1     9     6
 -0.0000000003     2     1     9     9
 0.0322903491     2     1    10     3
 0.0000000012     2     1    10     4
 -0.0306018582     2     1    10     7
 -0.0000000059     2     1    10    10
 0.5295087483     2     2     1     1
 -0.0148778096     2     2     1     3
 -0.0209568785     2     2     1     7
 -0.0148778096     2     2     3     1
 0.8551085624     2     2     3     3
 -0.0000000006     2     2     3     4
 0.1199238576     2     2     3     7
 -0.0000000006     2     2     4     3
 0.6431543579     2     2     4     4
 0.0000000003     2     2     4     7
 -0.0829202472     2     2     4    10
 0.7138634543     2     2     5     5
 0.0000000004     2     2     5     8
 -0.0000000005     2     2     5     9
 0.7138634543     2     2     6     6
 -0.0000000004     2     2     6     8
 -0.0000000003     2     2     6     9
 -0.0209568785     2     2     7     1
 0.1199238576     2     2     7     3
 0.0000000003     2     2     7     4
 0.6884940299     2     2     7     7
 0.0000000001     2     2     7    10
 0.0000000004     2     2     8     5
 -0.0000000004     2     2     8     6
 0.5262166994     2     2     8     8
 -0.0000000005     2     2     9     5
 -0.0000000003     2     2     9     6
 0.5262166994     2     2     9     9
 -0.0829202472     2     2    10     4
 0.0000000001     2     2    10     7
 0.2577300125     2     2    10    10
 0.0148778096     2     3     1     2
 -0.0005800576     2     3     1     4
 -0.0000000002     2     3     1     7
 0.0001360442     2     3     1    10
 -0.0000000006     2     3     3     1
 -0.8551085624     2     3     3     2
 0.0163084099     2     3     3     4
 0.0000000003     2     3     3     7
 -0.0045661295     2     3     3    10
 0.1208521559     2     3     4     1
 0.0000000006     2     3     4     2
 0.0000000004     2     3     4     4
 0.0203020673     2     3     4     7
 0.0000000019     2     3     4    10
 -0.0000000003     2     3     5     5
 -0.0114467387     2     3     5     8
 0.0175493882     2     3     5     9
 -0.0000000003     2     3     6     6
 0.0175493882     2     3     6     8
 0.0114467388     2     3     6     9
 -0.1199238576     2     3     7     2
 0.0270157903     2     3     7     4
 0.0000000003     2     3     7     7
 -0.0057287068     2     3     7    10
 -0.0073296352     2     3     8     5
 0.0112373154     2     3     8     6
 0.0000000033     2     3     8     8
 -0.0000000003     2     3     8     9
 0.0112373153     2     3     9     5
 0.0073296353     2     3     9     6
 -0.0000000003     2     3     9     8
 0.0000000032     2     3     9     9
 -0.0322903491     2     3    10     1
 0.0000000020     2     3    10     4
 -0.0029262454     2     3    10     7
 0.0000000705     2     3    10    10
 -0.0099961894     2     4     1     1
 0.0005800576     2     4     1     3
 0.0008055691     2     4     1     7
 0.1214346517     2     4     3     1
 0.0000000006     2     4     3     2
 -0.0163084099     2     4     3     3
 -0.0067014998     2     4     3     7
 -0.0000000001     2     4     3    10
 -0.0000000007     2     4     4     1
 -0.6431543579     2     4     4     2
 -0.0000000004     2     4     4     3
 -0.0000000001     2     4     4     7
 -0.0000730556     2     4     4    10
 -0.0210772453     2     4     5     5
 0.0000000001     2     4     5     9
 -0.0210772453     2     4     6     6
 -0.2317462660     2     4     7     1
 -0.0000000003     2     4     7     2
 -0.0270157903     2     4     7     3
 -0.0218609846     2     4     7     7
 0.0000000006     2     4     7    10
 -0.0000000001     2     4     8     5
 0.0000000001     2     4     8     6
 -0.0126739365     2     4     8     8
 0.0000000001     2     4     9     5
 -0.0126739365     2     4     9     9
 -0.0000000012     2     4    10     1
 0.0829202472     2     4    10     2
 -0.0000000020     2     4    10     3
 0.0000000014     2     4    10     7
 0.0002791624     2     4    10    10
 0.0003010946     2     5     1     8
 -0.0004616185     2     5     1     9
 -0.0031610383     2     5     3     8
 0.0048462964     2     5     3     9
 0.0000000001     2     5     5     1
 -0.7138634543     2     5     5     2
 0.0000000003     2     5     5     3
 0.0210772453     2     5     5     4
 -0.0060705058     2     5     5    10
 -0.0008362813     2     5     7     8
 0.0012821315     2     5     7     9
 0.0810885757     2     5     8     1
 -0.0000000004     2     5     8     2
 0.0073296352     2     5     8     3
 0.0000000001     2     5     8     4
 -0.0006415820     2     5     8     7
 0.0000000005     2     5     8    10
 -0.1243196789     2     5     9     1
 0.0000000005     2     5     9     2
 -0.0112373153     2     5     9     3
 -0.0000000001     2     5     9     4
 0.0009836314     2     5     9     7
 -0.0000000006     2     5     9    10
 0.0000000004     2     5    10     8
 -0.0000000006     2     5    10     9
 -0.0004616185     2     6     1     8
 -0.0003010946     2     6     1     9
 0.0048462964     2     6     3     8
 0.0031610384     2     6     3     9
 0.0000000001     2     6     6     1
 -0.7138634543     2     6     6     2
 0.0000000003     2     6     6     3
 0.0210772453     2     6     6     4
 -0.0060705059     2     6     6    10
 0.0012821315     2     6     7     8
 0.0008362813     2     6     7     9
 -0.1243196789     2     6     8     1
 0.0000000004     2     6     8     2
 -0.0112373154     2     6     8     3
 -0.0000000001     2     6     8     4
 0.0009836314     2     6     8     7
 -0.0000000006     2     6     8    10
 -0.0810885757     2     6     9     1
 0.0000000003     2     6     9     2
 -0.0073296353     2     6     9     3
 0.0006415821     2     6     9     7
 -0.0000000004     2     6     9    10
 -0.0000000005     2     6    10     8
 -0.0000000004     2     6    10     9
 0.0209568785     2     7     1     2
 0.0000000002     2     7     1     3
 -0.0008055691     2     7     1     4
 0.0002086809     2     7     1    10
 0.0000000002     2     7     3     1
 -0.1199238576     2     7     3     2
 -0.0000000003     2     7     3     3
 0.0067014998     2     7     3     4
 -0.0024045765     2     7     3    10
 -0.2325538197     2     7     4     1
 -0.0000000003     2     7     4     2
 -0.0203020673     2     7     4     3
 0.0000000001     2     7     4     4
 -0.0000000005     2     7     4    10
 -0.0004245831     2     7     5     8
 0.0006509430     2     7     5     9
 0.0006509430     2     7     6     8
 0.0004245831     2     7     6     9
 -0.6884940299     2     7     7     2
 -0.0000000003     2     7     7     3
 0.0218609846     2     7     7     4
 -0.0045565430     2     7     7    10
 0.0006415820     2     7     8     5
 -0.0009836314     2     7     8     6
 -0.0000000007     2     7     8     8
 0.0000000004     2     7     8     9
 -0.0009836314     2     7     9     5
 -0.0006415821     2     7     9     6
 0.0000000004     2     7     9     8
 -0.0000000007     2     7     9     9
 0.0306018582     2     7    10     1
 -0.0000000001     2     7    10     2
 0.0029262454     2     7    10     3
 -0.0000000014     2     7    10     4
 -0.0000000274     2     7    10    10
 -0.0003010946     2     8     1     5
 0.0004616185     2     8     1     6
 0.0031610383     2     8     3     5
 -0.0048462964     2     8     3     6
 0.0807700654     2     8     5     1
 -0.0000000004     2     8     5     2
 0.0114467387     2     8     5     3
 0.0004245831     2     8     5     7
 -0.1238313600     2     8     6     1
 0.0000000004     2     8     6     2
 -0.0175493882     2     8     6     3
 -0.0006509430     2     8     6     7
 0.0008362813     2     8     7     5
 -0.0012821315     2     8     7     6
 0.0000000003     2     8     8     1
 -0.5262166994     2     8     8     2
 -0.0000000033     2     8     8     3
 0.0126739365     2     8     8     4
 0.0000000007     2     8     8     7
 -0.0030894184     2     8     8    10
 0.0000000003     2     8     9     3
 -0.0000000004     2     8     9     7
 -0.0000000004     2     8    10     5
 0.0000000005     2     8    10     6
 0.0004616185     2     9     1     5
 0.0003010946     2     9     1     6
 -0.0048462964     2     9     3     5
 -0.0031610384     2     9     3     6
 -0.1238313600     2     9     5     1
 0.0000000005     2     9     5     2
 -0.0175493882     2     9     5     3
 -0.0000000001     2     9     5     4
 -0.0006509430     2     9     5     7
 -0.0807700654     2     9     6     1
 0.0000000003     2     9     6     2
 -0.0114467388     2     9     6     3
 -0.0004245831     2     9     6     7
 -0.0000000001     2     9     6    10
 -0.0012821315     2     9     7     5
 -0.0008362813     2     9     7     6
 0.0000000003     2     9     8     3
 -0.0000000004     2     9     8     7
 0.0000000003     2     9     9     1
 -0.5262166994     2     9     9     2
 -0.0000000032     2     9     9     3
 0.0126739365     2     9     9     4
 0.0000000007     2     9     9     7
 -0.0030894184     2     9     9    10
 0.0000000006     2     9    10     5
 0.0000000004     2     9    10     6
 0.0025413389     2    10     1     1
 -0.0001360442     2    10     1     3
 -0.0002086809     2    10     1     7
 -0.0324038257     2    10     3     1
 0.0045661295     2    10     3     3
 0.0000000001     2    10     3     4
 0.0024045765     2    10     3     7
 -0.0000000012     2    10     4     1
 0.0829202472     2    10     4     2
 -0.0000000019     2    10     4     3
 0.0000730556     2    10     4     4
 0.0000000005     2    10     4     7
 0.0060705058     2    10     5     5
 0.0060705059     2    10     6     6
 0.0000000001     2    10     6     9
 0.0303866295     2    10     7     1
 -0.0000000001     2    10     7     2
 0.0057287068     2    10     7     3
 -0.0000000006     2    10     7     4
 0.0045565430     2    10     7     7
 -0.0000000005     2    10     8     5
 0.0000000006     2    10     8     6
 0.0030894184     2    10     8     8
 0.0000000006     2    10     9     5
 0.0000000004     2    10     9     6
 0.0030894184     2    10     9     9
 0.0000000059     2    10    10     1
 -0.2577300125     2    10    10     2
 -0.0000000705     2    10    10     3
 -0.0002791624     2    10    10     4
 0.0000000274     2    10    10     7
 -0.8547271910     3     1     1     3
 0.0000000008     3     1     1     4
 -0.1189579321     3     1     1     7
 -0.0148778096     3     1     2     2
 -0.0000000006     3     1     2     3
 0.1214346517     3     1     2     4
 0.0000000002     3     1     2     7
 -0.0324038257     3     1     2    10
 0.0005800576     3     1     4     2
 0.0000000004     3     1     4     3
 0.0110278128     3     1     4     4
 0.0000000002     3     1     4     7
 -0.0016008185     3     1     4    10
 0.0185463942     3     1     5     5
 0.0000000001     3     1     5     8
 -0.0000000002     3     1     5     9
 0.0185463943     3     1     6     6
 -0.0000000002     3     1     6     8
 -0.0000000001     3     1     6     9
 0.0000000002     3     1     7     2
 0.0259393140     3     1     7     3
 -0.0000000001     3     1     7     4
 0.0258845226     3     1     7     7
 -0.0000000010     3     1     7    10
 0.0000000001     3     1     8     5
 -0.0000000001     3     1     8     6
 0.0098827054     3     1     8     8
 -0.0000000001     3     1     9     5
 -0.0000000001     3     1     9     6
 0.0098827054     3     1     9     9
 -0.0001360442     3     1    10     2
 -0.0020565597     3     1    10     4
 -0.0000000013     3     1    10     7
 0.0013067789     3     1    10    10
 -0.0000000006     3     2     1     3
 0.1208521559     3     2     1     4
 -0.0322903491     3     2     1    10
 0.0148778096     3     2     2     1
 -0.8551085624     3     2     2     3
 0.0000000006     3     2     2     4
 -0.1199238576     3     2     2     7
 -0.0005800576     3     2     4     1
 0.0163084099     3     2     4     3
 0.0000000004     3     2     4     4
 0.0270157903     3     2     4     7
 0.0000000020     3     2     4    10
 -0.0000000003     3     2     5     5
 -0.0073296352     3     2     5     8
 0.0112373153     3     2     5     9
 -0.0000000003     3     2     6     6
 0.0112373154     3     2     6     8
 0.0073296353     3     2     6     9
 -0.0000000002     3     2     7     1
 0.0000000003     3     2     7     3
 0.0203020673     3     2     7     4
 0.0000000003     3     2     7     7
 -0.0029262454     3     2     7    10
 -0.0114467387     3     2     8     5
 0.0175493882     3     2     8     6
 0.0000000033     3     2     8     8
 -0.0000000003     3     2     8     9
 0.0175493882     3     2     9     5
 0.0114467388     3     2     9     6
 -0.0000000003     3     2     9     8
 0.0000000032     3     2     9     9
 0.0001360442     3     2    10     1
 -0.0045661295     3     2    10     3
 0.0000000019     3     2    10     4
 -0.0057287068     3     2    10     7
 0.0000000705     3     2    10    10
 0.8547271910     3     3     1     1
 0.0000000006     3     3     1     2
 -0.0000000004     3     3     1     4
 -0.0259393140     3     3     1     7
 0.0000000006     3     3     2     1
 0.8551085624     3     3     2     2
 -0.0163084099     3     3     2     4
 -0.0000000003     3     3     2     7
 0.0045661295     3     3     2    10
 -0.0000000004     3     3     4     1
 -0.0163084099     3     3     4     2
 0.4882336005     3     3     4     4
 0.0000000007     3     3     4     7
 -0.0516554501     3     3     4    10
 0.5650565509     3     3     5     5
 0.0000000002     3     3     5     8
 -0.0000000004     3     3     5     9
 0.5650565508     3     3     6     6
 -0.0000000003     3     3     6     8
 -0.0000000002     3     3     6     9
 -0.0259393140     3     3     7     1
 -0.0000000003     3     3     7     2
 0.0000000007     3     3     7     4
 0.5169915798     3     3     7     7
 0.0000000012     3     3     7    10
 0.0000000002     3     3     8     5
 -0.0000000003     3     3     8     6
 0.4536581229     3     3     8     8
 0.0000000001     3     3     8     9
 -0.0000000004     3     3     9     5
 -0.0000000002     3     3     9     6
 0.0000000001     3     3     9     8
 0.4536581230     3     3     9     9
 0.0045661295     3     3    10     2
 -0.0516554501     3     3    10     4
 0.0000000012     3     3    10     7
 0.2392920860     3     3    10    10
 -0.0000000008     3     4     1     1
 -0.1208521559     3     4     1     2
 0.0000000004     3     4     1     3
 0.0000000003     3     4     1     7
 0.0002465345     3     4     1    10
 -0.1214346517     3     4     2     1
 -0.0000000006     3     4     2     2
 0.0163084099     3     4     2     3
 0.0067014998     3     4     2     7
 0.0000000001     3     4     2    10
 -0.0110278128     3     4     4     1
 -0.0000000004     3     4     4     2
 -0.4882336005     3     4     4     3
 -0.0917989809     3     4     4     7
 -0.0000000008     3     4     4    10
 -0.0000000002     3     4     5     5
 0.0160293765     3     4     5     8
 -0.0245751874     3     4     5     9
 -0.0000000002     3     4     6     6
 -0.0245751874     3     4     6     8
 -0.0160293765     3     4     6     9
 0.0000000001     3     4     7     1
 -0.0203020673     3     4     7     2
 -0.0000000007     3     4     7     3
 -0.0000000002     3     4     7     7
 -0.0094143473     3     4     7    10
 0.0023607808     3     4     8     5
 -0.0036193942     3     4     8     6
 -0.0000000007     3     4     8     8
 -0.0036193942     3     4     9     5
 -0.0023607808     3     4     9     6
 -0.0000000007     3     4     9     9
 0.0020565597     3     4    10     1
 -0.0000000019     3     4    10     2
 0.0516554501     3     4    10     3
 0.0115694048     3     4    10     7
 -0.0000000301     3     4    10    10
 0.0031610383     3     5     2     8
 -0.0048462964     3     5     2     9
 0.0140837804     3     5     4     8
 -0.0215923271     3     5     4     9
 -0.0185463942     3     5     5     1
 0.0000000003     3     5     5     2
 -0.5650565509     3     5     5     3
 0.0000000002     3     5     5     4
 -0.0805148432     3     5     5     7
 0.0000000001     3     5     5    10
 0.0000000001     3     5     7     8
 -0.0000000001     3     5     7     9
 -0.0000000001     3     5     8     1
 0.0114467387     3     5     8     2
 -0.0000000002     3     5     8     3
 -0.0023607808     3     5     8     4
 0.0035800287     3     5     8    10
 0.0000000001     3     5     9     1
 -0.0175493882     3     5     9     2
 0.0000000004     3     5     9     3
 0.0036193942     3     5     9     4
 -0.0000000001     3     5     9     7
 -0.0054886649     3     5     9    10
 -0.0007243733     3     5    10     8
 0.0011105616     3     5    10     9
 -0.0048462964     3     6     2     8
 -0.0031610384     3     6     2     9
 -0.0215923271     3     6     4     8
 -0.0140837803     3     6     4     9
 -0.0185463943     3     6     6     1
 0.0000000003     3     6     6     2
 -0.5650565508     3     6     6     3
 0.0000000002     3     6     6     4
 -0.0805148431     3     6     6     7
 -0.0000000001     3     6     7     8
 -0.0000000001     3     6     7     9
 0.0000000001     3     6     8     1
 -0.0175493882     3     6     8     2
 0.0000000003     3     6     8     3
 0.0036193942     3     6     8     4
 -0.0000000002     3     6     8     7
 -0.0054886649     3     6     8    10
 0.0000000001     3     6     9     1
 -0.0114467388     3     6     9     2
 0.0000000002     3     6     9     3
 0.0023607808     3     6     9     4
 -0.0000000001     3     6     9     7
 -0.0035800286     3     6     9    10
 0.0011105615     3     6    10     8
 0.0007243733     3     6    10     9
 0.1189579321     3     7     1     1