&FCI NORB= 10,NELEC= 14,MS2=0,
 ORBSYM=1,1,1,1,1,1,1,1,1,1
 ISYM=1,
&END
 0.4071742815     1     1     2     2
 0.0043835976     1     1     2     4
 -0.0010900010     1     1     2    10
 0.7190036683     1     1     3     3
 -0.0000000003     1     1     3     4
 -0.0787263819     1     1     3     5
 0.0000000011     1     1     3    10
 0.0043835976     1     1     4     2
 -0.0000000003     1     1     4     3
 0.6250475179     1     1     4     4
 0.0000000009     1     1     4     5
 0.0803622453     1     1     4    10
 -0.0787263819     1     1     5     3
 0.0000000009     1     1     5     4
 0.6565081514     1     1     5     5
 0.0000000008     1     1     5    10
 0.6394241547     1     1     6     6
 0.0000000001     1     1     6     7
 -0.0000000004     1     1     6     8
 0.0000000005     1     1     6     9
 0.0000000001     1     1     7     6
 0.6394241562     1     1     7     7
 -0.0000000008     1     1     7     8
 -0.0000000007     1     1     7     9
 -0.0000000004     1     1     8     6
 -0.0000000008     1     1     8     7
 0.5820561064     1     1     8     8
 -0.0000000001     1     1     8     9
 0.0000000005     1     1     9     6
 -0.0000000007     1     1     9     7
 -0.0000000001     1     1     9     8
 0.5820561064     1     1     9     9
 -0.0010900010     1     1    10     2
 0.0000000011     1     1    10     3
 0.0803622453     1     1    10     4
 0.0000000008     1     1    10     5
 0.2848001731     1     1    10    10
 -0.4071742815     1     2     2     1
 -0.0053299485     1     2     2     3
 0.0116224890     1     2     2     5
 0.0000000003     1     2     3     3
 -0.1943749016     1     2     3     4
 -0.0000000007     1     2     3     5
 -0.0689555977     1     2     3    10
 -0.0043835976     1     2     4     1
 -0.1944976957     1     2     4     3
 -0.2200835492     1     2     4     5
 -0.0000000037     1     2     4    10
 -0.0000000006     1     2     5     3
 -0.2203357831     1     2     5     4
 0.0000000006     1     2     5     5
 0.0140089824     1     2     5    10
 0.0000000003     1     2     6     6
 0.1290171531     1     2     6     8
 -0.1503227708     1     2     6     9
 -0.0000000005     1     2     7     7
 0.1503227715     1     2     7     8
 0.1290171536     1     2     7     9
 0.1288207841     1     2     8     6
 0.1500939746     1     2     8     7
 0.0000000001     1     2     8     8
 -0.1500939739     1     2     9     6
 0.1288207846     1     2     9     7
 0.0000000001     1     2     9     9
 0.0010900010     1     2    10     1
 -0.0689160463     1     2    10     3
 -0.0000000037     1     2    10     4
 0.0139541312     1     2    10     5
 -0.0000000041     1     2    10    10
 0.0053299485     1     3     2     2
 0.0001228957     1     3     2     4
 -0.0000000001     1     3     2     5
 -0.0000319071     1     3     2    10
 -0.7190036683     1     3     3     1
 -0.0000000003     1     3     3     2
 0.0000000005     1     3     3     4
 0.0160815909     1     3     3     5
 0.0000000002     1     3     3    10
 0.0000000003     1     3     4     1
 0.1944976957     1     3     4     2
 -0.0060814129     1     3     4     4
 0.0000000002     1     3     4     5
 0.0010012937     1     3     4    10
 0.0787263819     1     3     5     1
 0.0000000006     1     3     5     2
 -0.0000000002     1     3     5     4
 -0.0233176990     1     3     5     5
 -0.0000000006     1     3     5    10
 -0.0176295130     1     3     6     6
 -0.0000000001     1     3     6     8
 0.0000000001     1     3     6     9
 -0.0176295130     1     3     7     7
 -0.0000000001     1     3     7     8
 -0.0000000001     1     3     7     9
 -0.0142622684     1     3     8     8
 -0.0000000001     1     3     8     9
 0.0000000001     1     3     9     6
 -0.0000000001     1     3     9     8
 -0.0142622685     1     3     9     9
 -0.0000000011     1     3    10     1
 0.0689160463     1     3    10     2
 0.0014592362     1     3    10     4
 -0.0000000006     1     3    10     5
 -0.0004197083     1     3    10    10
 -0.0043835976     1     4     2     1
 -0.0001228957     1     4     2     3
 0.0002529674     1     4     2     5
 -0.0000000001     1     4     2    10
 0.0000000003     1     4     3     1
 0.1943749016     1     4     3     2
 -0.0000000005     1     4     3     3
 0.0000000003     1     4     3     5
 -0.0005228874     1     4     3    10
 -0.6250475179     1     4     4     1
 0.0060814129     1     4     4     3
 -0.0028752510     1     4     4     5
 -0.0000000005     1     4     4    10
 -0.0000000009     1     4     5     1
 0.2203357831     1     4     5     2
 0.0000000002     1     4     5     3
 -0.0000000003     1     4     5     5
 0.0039694642     1     4     5    10
 0.0000000001     1     4     6     6
 0.0083797659     1     4     6     8
 -0.0097635826     1     4     6     9
 0.0097635826     1     4     7     8
 0.0083797659     1     4     7     9
 0.0086306492     1     4     8     6
 0.0100558962     1     4     8     7
 0.0000000004     1     4     8     8
 0.0000000001     1     4     8     9
 -0.0100558962     1     4     9     6
 0.0086306492     1     4     9     7
 0.0000000001     1     4     9     8
 0.0000000003     1     4     9     9
 -0.0803622453     1     4    10     1
 0.0000000037     1     4    10     2
 -0.0014592362     1     4    10     3
 0.0021722398     1     4    10     5
 0.0000000588     1     4    10    10
 -0.0116224890     1     5     2     2
 0.0000000001     1     5     2     3
 -0.0002529674     1     5     2     4
 0.0000618402     1     5     2    10
 0.0787263819     1     5     3     1
 0.0000000007     1     5     3     2
 -0.0160815909     1     5     3     3
 -0.0000000003     1     5     3     4
 -0.0000000009     1     5     4     1
 0.2200835492     1     5     4     2
 -0.0000000002     1     5     4     3
 0.0028752510     1     5     4     4
 0.0014882472     1     5     4    10
 -0.6565081514     1     5     5     1
 -0.0000000006     1     5     5     2
 0.0233176990     1     5     5     3
 0.0000000003     1     5     5     4
 -0.0000000006     1     5     5    10
 -0.0120745515     1     5     6     6
 -0.0000000001     1     5     6     9
 -0.0120745517     1     5     7     7
 -0.0000000001     1     5     7     9
 0.0000000001     1     5     8     6
 -0.0077245304     1     5     8     8
 0.0000000002     1     5     8     9
 -0.0000000001     1     5     9     6
 0.0000000002     1     5     9     8
 -0.0077245305     1     5     9     9
 -0.0000000008     1     5    10     1
 -0.0139541312     1     5    10     2
 0.0000000006     1     5    10     3
 -0.0021722398     1     5    10     4
 -0.0004002947     1     5    10    10
 0.0001814827     1     6     2     8
 -0.0002114525     1     6     2     9
 -0.0010680626     1     6     4     8
 0.0012444402     1     6     4     9
 -0.6394241547     1     6     6     1
 -0.0000000003     1     6     6     2
 0.0176295130     1     6     6     3
 -0.0000000001     1     6     6     4
 0.0120745515     1     6     6     5
 0.0000000001     1     6     6    10
 -0.0000000001     1     6     7     1
 0.0000000004     1     6     8     1
 -0.1288207841     1     6     8     2
 -0.0086306492     1     6     8     4
 -0.0000000001     1     6     8     5
 -0.0038723318     1     6     8    10
 -0.0000000005     1     6     9     1
 0.1500939739     1     6     9     2
 -0.0000000001     1     6     9     3
 0.0100558962     1     6     9     4
 0.0000000001     1     6     9     5
 0.0045118004     1     6     9    10
 -0.0001885547     1     6    10     8
 0.0002196922     1     6    10     9
 0.0002114525     1     7     2     8
 0.0001814827     1     7     2     9
 -0.0012444402     1     7     4     8
 -0.0010680626     1     7     4     9
 -0.0000000001     1     7     6     1
 -0.6394241562     1     7     7     1
 0.0000000005     1     7     7     2
 0.0176295130     1     7     7     3
 0.0120745517     1     7     7     5
 0.0000000008     1     7     8     1
 -0.1500939746     1     7     8     2
 -0.0100558962     1     7     8     4
 -0.0045118004     1     7     8    10
 0.0000000007     1     7     9     1
 -0.1288207846     1     7     9     2
 -0.0086306492     1     7     9     4
 -0.0038723318     1     7     9    10
 -0.0002196922     1     7    10     8
 -0.0001885547     1     7    10     9
 -0.0001814827     1     8     2     6
 -0.0002114525     1     8     2     7
 0.0010680626     1     8     4     6
 0.0012444402     1     8     4     7
 0.0000000004     1     8     6     1
 -0.1290171531     1     8     6     2
 0.0000000001     1     8     6     3
 -0.0083797659     1     8     6     4
 -0.0037801409     1     8     6    10
 0.0000000008     1     8     7     1
 -0.1503227715     1     8     7     2
 0.0000000001     1     8     7     3
 -0.0097635826     1     8     7     4
 -0.0044043854     1     8     7    10
 -0.5820561064     1     8     8     1
 -0.0000000001     1     8     8     2
 0.0142622684     1     8     8     3
 -0.0000000004     1     8     8     4
 0.0077245304     1     8     8     5
 -0.0000000002     1     8     8    10
 0.0000000001     1     8     9     1
 0.0000000001     1     8     9     3
 -0.0000000001     1     8     9     4
 -0.0000000002     1     8     9     5
 0.0001885547     1     8    10     6
 0.0002196922     1     8    10     7
 0.0002114525     1     9     2     6
 -0.0001814827     1     9     2     7
 -0.0012444402     1     9     4     6
 0.0010680626     1     9     4     7
 -0.0000000005     1     9     6     1
 0.1503227708     1     9     6     2
 -0.0000000001     1     9     6     3
 0.0097635826     1     9     6     4
 0.0000000001     1     9     6     5
 0.0044043854     1     9     6    10
 0.0000000007     1     9     7     1
 -0.1290171536     1     9     7     2
 0.0000000001     1     9     7     3
 -0.0083797659     1     9     7     4
 0.0000000001     1     9     7     5
 -0.0037801409     1     9     7    10
 0.0000000001     1     9     8     1
 0.0000000001     1     9     8     3
 -0.0000000001     1     9     8     4
 -0.0000000002     1     9     8     5
 -0.5820561064     1     9     9     1
 -0.0000000001     1     9     9     2
 0.0142622685     1     9     9     3
 -0.0000000003     1     9     9     4
 0.0077245305     1     9     9     5
 -0.0000000002     1     9     9    10
 -0.0002196922     1     9    10     6
 0.0001885547     1     9    10     7
 0.0010900010     1    10     2     1
 0.0000319071     1    10     2     3
 0.0000000001     1    10     2     4
 -0.0000618402     1    10     2     5
 -0.0000000011     1    10     3     1
 0.0689555977     1    10     3     2
 -0.0000000002     1    10     3     3
 0.0005228874     1    10     3     4
 -0.0803622453     1    10     4     1
 0.0000000037     1    10     4     2
 -0.0010012937     1    10     4     3
 0.0000000005     1    10     4     4
 -0.0014882472     1    10     4     5
 -0.0000000008     1    10     5     1
 -0.0140089824     1    10     5     2
 0.0000000006     1    10     5     3
 -0.0039694642     1    10     5     4
 0.0000000006     1    10     5     5
 -0.0000000001     1    10     6     6
 0.0037801409     1    10     6     8
 -0.0044043854     1    10     6     9
 0.0044043854     1    10     7     8
 0.0037801409     1    10     7     9
 0.0038723318     1    10     8     6
 0.0045118004     1    10     8     7
 0.0000000002     1    10     8     8
 -0.0045118004     1    10     9     6
 0.0038723318     1    10     9     7
 0.0000000002     1    10     9     9
 -0.2848001731     1    10    10     1
 0.0000000041     1    10    10     2
 0.0004197083     1    10    10     3
 -0.0000000588     1    10    10     4
 0.0004002947     1    10    10     5
 -0.4071742815     2     1     1     2
 -0.0043835976     2     1     1     4
 0.0010900010     2     1     1    10
 -0.0053299485     2     1     3     2
 0.0000000003     2     1     3     3
 -0.1944976957     2     1     3     4
 -0.0000000006     2     1     3     5
 -0.0689160463     2     1     3    10
 -0.1943749016     2     1     4     3
 -0.2203357831     2     1     4     5
 -0.0000000037     2     1     4    10
 0.0116224890     2     1     5     2
 -0.0000000007     2     1     5     3
 -0.2200835492     2     1     5     4
 0.0000000006     2     1     5     5
 0.0139541312     2     1     5    10
 0.0000000003     2     1     6     6
 0.1288207841     2     1     6     8
 -0.1500939739     2     1     6     9
 -0.0000000005     2     1     7     7
 0.1500939746     2     1     7     8
 0.1288207846     2     1     7     9
 0.1290171531     2     1     8     6
 0.1503227715     2     1     8     7
 0.0000000001     2     1     8     8
 -0.1503227708     2     1     9     6
 0.1290171536     2     1     9     7
 0.0000000001     2     1     9     9
 -0.0689555977     2     1    10     3
 -0.0000000037     2     1    10     4
 0.0140089824     2     1    10     5
 -0.0000000041     2     1    10    10
 0.4071742815     2     2     1     1
 0.0053299485     2     2     1     3
 -0.0116224890     2     2     1     5
 0.0053299485     2     2     3     1
 0.7190754090     2     2     3     3
 -0.0000000002     2     2     3     4
 -0.0789921925     2     2     3     5
 0.0000000010     2     2     3    10
 -0.0000000002     2     2     4     3
 0.6249770649     2     2     4     4
 0.0000000007     2     2     4     5
 0.0803724359     2     2     4    10
 -0.0116224890     2     2     5     1
 -0.0789921925     2     2     5     3
 0.0000000007     2     2     5     4
 0.6571906451     2     2     5     5
 0.0000000007     2     2     5    10
 0.6397461871     2     2     6     6
 0.0000000001     2     2     6     7
 -0.0000000004     2     2     6     8
 0.0000000004     2     2     6     9
 0.0000000001     2     2     7     6
 0.6397461885     2     2     7     7
 -0.0000000008     2     2     7     8
 -0.0000000006     2     2     7     9
 -0.0000000004     2     2     8     6
 -0.0000000008     2     2     8     7
 0.5818490808     2     2     8     8
 -0.0000000001     2     2     8     9
 0.0000000004     2     2     9     6
 -0.0000000006     2     2     9     7
 -0.0000000001     2     2     9     8
 0.5818490809     2     2     9     9
 0.0000000010     2     2    10     3
 0.0803724359     2     2    10     4
 0.0000000007     2     2    10     5
 0.2847948631     2     2    10    10
 -0.0053299485     2     3     1     2
 -0.0001228957     2     3     1     4
 0.0000000001     2     3     1     5
 0.0000319071     2     3     1    10
 -0.0000000003     2     3     3     1
 -0.7190754090     2     3     3     2
 -0.0074018482     2     3     3     4
 -0.0000000004     2     3     3     5
 0.0012782793     2     3     3    10
 0.1943749016     2     3     4     1
 0.0000000002     2     3     4     2
 0.0000000001     2     3     4     4
 0.0129187371     2     3     4     5
 0.0000000004     2     3     4    10
 0.0000000007     2     3     5     1
 0.0789921925     2     3     5     2
 0.0171142992     2     3     5     4
 0.0000000006     2     3     5     5
 -0.0007219709     2     3     5    10
 -0.0000000002     2     3     6     6
 -0.0126564194     2     3     6     8
 0.0147464735     2     3     6     9
 -0.0147464736     2     3     7     8
 -0.0126564194     2     3     7     9
 -0.0089517171     2     3     8     6
 -0.0104299847     2     3     8     7
 -0.0000000002     2     3     8     8
 0.0104299846     2     3     9     6
 -0.0089517172     2     3     9     7
 -0.0000000002     2     3     9     9
 0.0689555977     2     3    10     1
 -0.0000000010     2     3    10     2
 0.0000000006     2     3    10     4
 -0.0015116512     2     3    10     5
 -0.0000000546     2     3    10    10
 0.0043835976     2     4     1     1
 0.0001228957     2     4     1     3
 -0.0002529674     2     4     1     5
 0.0000000001     2     4     1    10
 0.1944976957     2     4     3     1
 0.0000000002     2     4     3     2
 0.0074018482     2     4     3     3
 -0.0042022974     2     4     3     5
 -0.0000000001     2     4     3    10
 -0.6249770649     2     4     4     2
 -0.0000000001     2     4     4     3
 -0.0011832621     2     4     4    10
 0.2200835492     2     4     5     1
 -0.0000000007     2     4     5     2
 -0.0171142992     2     4     5     3
 0.0204479707     2     4     5     5
 0.0000000011     2     4     5    10
 0.0194458979     2     4     6     6
 0.0000000001     2     4     6     8
 -0.0000000001     2     4     6     9
 0.0194458980     2     4     7     7
 0.0000000001     2     4     7     9
 0.0000000001     2     4     8     7
 0.0177902872     2     4     8     8
 0.0177902872     2     4     9     9
 0.0000000037     2     4    10     1
 -0.0803724359     2     4    10     2
 -0.0000000006     2     4    10     3
 0.0000000007     2     4    10     5
 0.0006872459     2     4    10    10
 0.0116224890     2     5     1     2
 -0.0000000001     2     5     1     3
 0.0002529674     2     5     1     4
 -0.0000618402     2     5     1    10
 0.0000000006     2     5     3     1
 0.0789921925     2     5     3     2
 0.0000000004     2     5     3     3
 0.0042022974     2     5     3     4
 0.0008107978     2     5     3    10
 0.2203357831     2     5     4     1
 -0.0000000007     2     5     4     2
 -0.0129187371     2     5     4     3
 0.0000000002     2     5     4    10
 -0.0000000006     2     5     5     1
 -0.6571906451     2     5     5     2
 -0.0000000006     2     5     5     3
 -0.0204479707     2     5     5     4
 -0.0047192758     2     5     5    10
 -0.0003343951     2     5     6     8
 0.0003896163     2     5     6     9
 0.0000000001     2     5     7     7
 -0.0003896162     2     5     7     8
 -0.0003343950     2     5     7     9
 -0.0014163577     2     5     8     6
 -0.0016502519     2     5     8     7
 -0.0000000002     2     5     8     8
 -0.0000000001     2     5     8     9
 0.0016502520     2     5     9     6
 -0.0014163577     2     5     9     7
 -0.0000000001     2     5     9     8
 -0.0000000001     2     5     9     9
 -0.0140089824     2     5    10     1
 -0.0000000007     2     5    10     2
 0.0015116512     2     5    10     3
 -0.0000000007     2     5    10     4
 -0.0000000211     2     5    10    10
 -0.0001814827     2     6     1     8
 0.0002114525     2     6     1     9
 -0.0027139441     2     6     3     8
 0.0031621191     2     6     3     9
 -0.0000000001     2     6     4     9
 0.0009000225     2     6     5     8
 -0.0010486503     2     6     5     9
 -0.0000000003     2     6     6     1
 -0.6397461871     2     6     6     2
 0.0000000002     2     6     6     3
 -0.0194458979     2     6     6     4
 -0.0054046793     2     6     6    10
 -0.0000000001     2     6     7     2
 -0.1290171531     2     6     8     1
 0.0000000004     2     6     8     2
 0.0089517171     2     6     8     3
 0.0014163577     2     6     8     5
 0.0000000005     2     6     8    10
 0.1503227708     2     6     9     1
 -0.0000000004     2     6     9     2
 -0.0104299846     2     6     9     3
 -0.0016502520     2     6     9     5
 -0.0000000006     2     6     9    10
 0.0000000005     2     6    10     8
 -0.0000000005     2     6    10     9
 -0.0002114525     2     7     1     8
 -0.0001814827     2     7     1     9
 -0.0031621191     2     7     3     8
 -0.0027139441     2     7     3     9
 0.0010486503     2     7     5     8
 0.0009000226     2     7     5     9
 -0.0000000001     2     7     6     2
 0.0000000005     2     7     7     1
 -0.6397461885     2     7     7     2
 -0.0194458980     2     7     7     4
 -0.0000000001     2     7     7     5
 -0.0054046793     2     7     7    10
 -0.1503227715     2     7     8     1
 0.0000000008     2     7     8     2
 0.0104299847     2     7     8     3
 -0.0000000001     2     7     8     4
 0.0016502519     2     7     8     5
 0.0000000006     2     7     8    10
 -0.1290171536     2     7     9     1
 0.0000000006     2     7     9     2
 0.0089517172     2     7     9     3
 0.0014163577     2     7     9     5
 0.0000000005     2     7     9    10
 0.0000000005     2     7    10     8
 0.0000000005     2     7    10     9
 0.0001814827     2     8     1     6
 0.0002114525     2     8     1     7
 0.0027139441     2     8     3     6
 0.0031621191     2     8     3     7
 -0.0009000225     2     8     5     6
 -0.0010486503     2     8     5     7
 -0.1288207841     2     8     6     1
 0.0000000004     2     8     6     2
 0.0126564194     2     8     6     3
 -0.0000000001     2     8     6     4
 0.0003343951     2     8     6     5
 -0.1500939746     2     8     7     1
 0.0000000008     2     8     7     2
 0.0147464736     2     8     7     3
 0.0003896162     2     8     7     5
 -0.0000000001     2     8     8     1
 -0.5818490808     2     8     8     2
 0.0000000002     2     8     8     3
 -0.0177902872     2     8     8     4
 0.0000000002     2     8     8     5
 -0.0056474124     2     8     8    10
 0.0000000001     2     8     9     2
 0.0000000001     2     8     9     5
 -0.0000000005     2     8    10     6
 -0.0000000005     2     8    10     7
 -0.0002114525     2     9     1     6
 0.0001814827     2     9     1     7
 -0.0031621191     2     9     3     6
 0.0027139441     2     9     3     7
 0.0000000001     2     9     4     6
 0.0010486503     2     9     5     6
 -0.0009000226     2     9     5     7
 0.1500939739     2     9     6     1
 -0.0000000004     2     9     6     2
 -0.0147464735     2     9     6     3
 0.0000000001     2     9     6     4
 -0.0003896163     2     9     6     5
 -0.1288207846     2     9     7     1
 0.0000000006     2     9     7     2
 0.0126564194     2     9     7     3
 -0.0000000001     2     9     7     4
 0.0003343950     2     9     7     5
 0.0000000001     2     9     8     2
 0.0000000001     2     9     8     5
 -0.0000000001     2     9     9     1
 -0.5818490809     2     9     9     2
 0.0000000002     2     9     9     3
 -0.0177902872     2     9     9     4
 0.0000000001     2     9     9     5
 -0.0056474123     2     9     9    10
 0.0000000005     2     9    10     6
 -0.0000000005     2     9    10     7
 -0.0010900010     2    10     1     1
 -0.0000319071     2    10     1     3
 -0.0000000001     2    10     1     4
 0.0000618402     2    10     1     5
 0.0689160463     2    10     3     1
 -0.0000000010     2    10     3     2
 -0.0012782793     2    10     3     3
 0.0000000001     2    10     3     4
 -0.0008107978     2    10     3     5
 0.0000000037     2    10     4     1
 -0.0803724359     2    10     4     2
 -0.0000000004     2    10     4     3
 0.0011832621     2    10     4     4
 -0.0000000002     2    10     4     5
 -0.0139541312     2    10     5     1
 -0.0000000007     2    10     5     2
 0.0007219709     2    10     5     3
 -0.0000000011     2    10     5     4
 0.0047192758     2    10     5     5
 0.0054046793     2    10     6     6
 0.0054046793     2    10     7     7
 -0.0000000005     2    10     8     6
 -0.0000000006     2    10     8     7
 0.0056474124     2    10     8     8
 0.0000000006     2    10     9     6
 -0.0000000005     2    10     9     7
 0.0056474123     2    10     9     9
 0.0000000041     2    10    10     1
 -0.2847948631     2    10    10     2
 0.0000000546     2    10    10     3
 -0.0006872459     2    10    10     4
 0.0000000211     2    10    10     5
 -0.7190036683     3     1     1     3
 0.0000000003     3     1     1     4
 0.0787263819     3     1     1     5
 -0.0000000011     3     1     1    10
 0.0053299485     3     1     2     2
 -0.0000000003     3     1     2     3
 0.1944976957     3     1     2     4
 0.0000000006     3     1     2     5
 0.0689160463     3     1     2    10
 0.0001228957     3     1     4     2
 0.0000000005     3     1     4     3
 -0.0060814129     3     1     4     4
 -0.0000000002     3     1     4     5
 0.0014592362     3     1     4    10
 -0.0000000001     3     1     5     2
 0.0160815909     3     1     5     3
 0.0000000002     3     1     5     4
 -0.0233176990     3     1     5     5
 -0.0000000006     3     1     5    10
 -0.0176295130     3     1     6     6
 0.0000000001     3     1     6     9
 -0.0176295130     3     1     7     7
 -0.0000000001     3     1     8     6
 -0.0000000001     3     1     8     7
 -0.0142622684     3     1     8     8
 -0.0000000001     3     1     8     9
 0.0000000001     3     1     9     6
 -0.0000000001     3     1     9     7
 -0.0000000001     3     1     9     8
 -0.0142622685     3     1     9     9
 -0.0000319071     3     1    10     2
 0.0000000002     3     1    10     3
 0.0010012937     3     1    10     4
 -0.0000000006     3     1    10     5
 -0.0004197083     3     1    10    10
 -0.0000000003     3     2     1     3
 0.1943749016     3     2     1     4
 0.0000000007     3     2     1     5
 0.0689555977     3     2     1    10
 -0.0053299485     3     2     2     1
 -0.7190754090     3     2     2     3
 0.0000000002     3     2     2     4
 0.0789921925     3     2     2     5
 -0.0000000010     3     2     2    10
 -0.0001228957     3     2     4     1
 -0.0074018482     3     2     4     3
 0.0000000001     3     2     4     4
 0.0171142992     3     2     4     5
 0.0000000006     3     2     4    10
 0.0000000001     3     2     5     1
 -0.0000000004     3     2     5     3
 0.0129187371     3     2     5     4
 0.0000000006     3     2     5     5
 -0.0015116512     3     2     5    10
 -0.0000000002     3     2     6     6
 -0.0089517171     3     2     6     8
 0.0104299846     3     2     6     9
 -0.0104299847     3     2     7     8
 -0.0089517172     3     2     7     9
 -0.0126564194     3     2     8     6
 -0.0147464736     3     2     8     7
 -0.0000000002     3     2     8     8
 0.0147464735     3     2     9     6
 -0.0126564194     3     2     9     7
 -0.0000000002     3     2     9     9
 0.0000319071     3     2    10     1
 0.0012782793     3     2    10     3
 0.0000000004     3     2    10     4
 -0.0007219709     3     2    10     5
 -0.0000000546     3     2    10    10
 0.7190036683     3     3     1     1
 0.0000000003     3     3     1     2
 -0.0000000005     3     3     1     4
 -0.0160815909     3     3     1     5
 -0.0000000002     3     3     1    10
 0.0000000003     3     3     2     1
 0.7190754090     3     3     2     2
 0.0074018482     3     3     2     4
 0.0000000004     3     3     2     5
 -0.0012782793     3     3     2    10
 -0.0000000005     3     3     4     1
 0.0074018482     3     3     4     2
 0.4136068900     3     3     4     4
 -0.0000000003     3     3     4     5
 0.0377554784     3     3     4    10
 -0.0160815909     3     3     5     1
 0.0000000004     3     3     5     2
 -0.0000000003     3     3     5     4
 0.4653839973     3     3     5     5
 0.0000000033     3     3     5    10
 0.4839717233     3     3     6     6
 -0.0000000007     3     3     6     8
 0.0000000009     3     3     6     9
 0.4839717238     3     3     7     7
 -0.0000000007     3     3     7     8
 -0.0000000006     3     3     7     9
 -0.0000000007     3     3     8     6
 -0.0000000007     3     3     8     7
 0.4605171239     3     3     8     8
 -0.0000000001     3     3     8     9
 0.0000000009     3     3     9     6
 -0.0000000006     3     3     9     7
 -0.0000000001     3     3     9     8
 0.4605171239     3     3     9     9
 -0.0000000002     3     3    10     1
 -0.0012782793     3     3    10     2
 0.0377554784     3     3    10     4
 0.0000000033     3     3    10     5
 0.2532233440     3     3    10    10
 -0.0000000003     3     4     1     1
 -0.1943749016     3     4     1     2
 0.0000000005     3     4     1     3
 -0.0000000003     3     4     1     5
 0.0005228874     3     4     1    10
 -0.1944976957     3     4     2     1
 -0.0000000002     3     4     2     2
 -0.0074018482     3     4     2     3
 0.0042022974     3     4     2     5
 0.0000000001     3     4     2    10
 0.0060814129     3     4     4     1
 -0.0000000001     3     4     4     2
 -0.4136068900     3     4     4     3
 0.1070478647     3     4     4     5
 0.0000000006     3     4     4    10
 -0.0000000002     3     4     5     1
 -0.0129187371     3     4     5     2
 0.0000000003     3     4     5     3
 -0.0000000010     3     4     5     5
 -0.0305063485     3     4     5    10
 0.0000000005     3     4     6     6
 -0.0373669023     3     4     6     8
 0.0435375929     3     4     6     9
 0.0000000007     3     4     7     7
 -0.0435375931     3     4     7     8
 -0.0373669024     3     4     7     9
 -0.0238070376     3     4     8     6
 -0.0277384812     3     4     8     7
 0.0000000014     3     4     8     8
 0.0000000001     3     4     8     9
 0.0277384810     3     4     9     6
 -0.0238070376     3     4     9     7
 0.0000000001     3     4     9     8
 0.0000000014     3     4     9     9
 -0.0010012937     3     4    10     1
 -0.0000000004     3     4    10     2
 -0.0377554784     3     4    10     3
 0.0019280776     3     4    10     5
 0.0000000453     3     4    10    10
 -0.0787263819     3     5     1     1
 -0.0000000007     3     5     1     2
 0.0160815909     3     5     1     3
 0.0000000003     3     5     1     4
 -0.0000000006     3     5     2     1
 -0.0789921925     3     5     2     2
 -0.0000000004     3     5     2     3
 -0.0042022974     3     5     2     4
 -0.0008107978     3     5     2    10
 0.0000000002     3     5     4     1
 -0.0171142992     3     5     4     2
 0.0000000003     3     5     4     3
 -0.1070478647     3     5     4     4
 -0.0331926710     3     5     4    10
 0.0233176990     3     5     5     1
 -0.0000000006     3     5     5     2
 -0.4653839973     3     5     5     3
 0.0000000010     3     5     5     4
 -0.0000000025     3     5     5    10
 -0.0620654971     3     5     6     6
 0.0000000001     3     5     6     9