&FCI NORB= 10,NELEC= 14,MS2=0,
 ORBSYM=1,1,1,1,1,1,1,1,1,1
 ISYM=1,
&END
 0.3528434495     1     1     2     2
 0.0025335056     1     1     2     4
 -0.0045683046     1     1     2    10
 0.6597586474     1     1     3     3
 0.0000000009     1     1     3     4
 -0.0556351475     1     1     3     5
 0.0000000001     1     1     3    10
 0.0025335056     1     1     4     2
 0.0000000009     1     1     4     3
 0.6141648283     1     1     4     4
 0.0000000010     1     1     4     5
 0.0773214524     1     1     4    10
 -0.0556351475     1     1     5     3
 0.0000000010     1     1     5     4
 0.6375906141     1     1     5     5
 -0.0000000001     1     1     5    10
 0.6102808966     1     1     6     6
 0.0000000001     1     1     6     7
 -0.0000000010     1     1     6     8
 -0.0000000004     1     1     6     9
 0.0000000001     1     1     7     6
 0.6102808960     1     1     7     7
 0.0000000004     1     1     7     8
 -0.0000000010     1     1     7     9
 -0.0000000010     1     1     8     6
 0.0000000004     1     1     8     7
 0.5842045641     1     1     8     8
 -0.0000000004     1     1     9     6
 -0.0000000010     1     1     9     7
 0.5842045640     1     1     9     9
 -0.0045683046     1     1    10     2
 0.0000000001     1     1    10     3
 0.0773214524     1     1    10     4
 -0.0000000001     1     1    10     5
 0.4303290037     1     1    10    10
 -0.3528434495     1     2     2     1
 -0.0027975842     1     2     2     3
 0.0085986204     1     2     2     5
 -0.0000000004     1     2     3     3
 -0.2408485608     1     2     3     4
 -0.0000000006     1     2     3     5
 -0.1095889633     1     2     3    10
 -0.0025335056     1     2     4     1
 -0.2408978662     1     2     4     3
 -0.0000000008     1     2     4     4
 -0.1936015926     1     2     4     5
 0.0000000001     1     2     4    10
 -0.0000000006     1     2     5     3
 -0.1937289234     1     2     5     4
 0.0000000006     1     2     5     5
 0.1153265242     1     2     5    10
 -0.0000000008     1     2     6     6
 0.2142603083     1     2     6     8
 0.0751368053     1     2     6     9
 -0.0000000009     1     2     7     7
 -0.0751368052     1     2     7     8
 0.2142603081     1     2     7     9
 0.2140767306     1     2     8     6
 -0.0750724282     1     2     8     7
 0.0000000001     1     2     8     8
 0.0750724284     1     2     9     6
 0.2140767304     1     2     9     7
 0.0000000001     1     2     9     9
 0.0045683046     1     2    10     1
 -0.1095124534     1     2    10     3
 0.0000000001     1     2    10     4
 0.1151130606     1     2    10     5
 0.0000000006     1     2    10    10
 0.0027975842     1     3     2     2
 0.0000492906     1     3     2     4
 0.0000000001     1     3     2     5
 -0.0000739623     1     3     2    10
 -0.6597586474     1     3     3     1
 0.0000000004     1     3     3     2
 0.0000000008     1     3     3     4
 0.0113545522     1     3     3     5
 -0.0000000003     1     3     3    10
 -0.0000000009     1     3     4     1
 0.2408978662     1     3     4     2
 -0.0036838008     1     3     4     4
 -0.0000000001     1     3     4     5
 0.0045843407     1     3     4    10
 0.0556351475     1     3     5     1
 0.0000000006     1     3     5     2
 -0.0000000010     1     3     5     4
 -0.0222858723     1     3     5     5
 0.0000000007     1     3     5    10
 -0.0181078805     1     3     6     6
 0.0000000002     1     3     6     8
 -0.0181078804     1     3     7     7
 0.0000000002     1     3     7     9
 0.0000000002     1     3     8     6
 -0.0000000001     1     3     8     7
 -0.0158188679     1     3     8     8
 0.0000000003     1     3     9     7
 -0.0158188679     1     3     9     9
 -0.0000000001     1     3    10     1
 0.1095124534     1     3    10     2
 0.0048612060     1     3    10     4
 0.0000000011     1     3    10     5
 -0.0043883055     1     3    10    10
 -0.0025335056     1     4     2     1
 -0.0000492906     1     4     2     3
 0.0001272476     1     4     2     5
 -0.0000000009     1     4     3     1
 0.2408485608     1     4     3     2
 -0.0000000008     1     4     3     3
 0.0000000009     1     4     3     5
 -0.0006443481     1     4     3    10
 -0.6141648283     1     4     4     1
 0.0000000008     1     4     4     2
 0.0036838008     1     4     4     3
 -0.0026707728     1     4     4     5
 -0.0000000002     1     4     4    10
 -0.0000000010     1     4     5     1
 0.1937289234     1     4     5     2
 0.0000000010     1     4     5     3
 -0.0000000007     1     4     5     5
 0.0125308270     1     4     5    10
 -0.0000000004     1     4     6     6
 0.0142236054     1     4     6     8
 0.0049879340     1     4     6     9
 -0.0000000004     1     4     7     7
 -0.0049879340     1     4     7     8
 0.0142236054     1     4     7     9
 0.0140430974     1     4     8     6
 -0.0049246335     1     4     8     7
 -0.0000000002     1     4     8     8
 0.0049246335     1     4     9     6
 0.0140430974     1     4     9     7
 -0.0000000002     1     4     9     9
 -0.0773214524     1     4    10     1
 -0.0000000001     1     4    10     2
 -0.0048612060     1     4    10     3
 0.0087149590     1     4    10     5
 -0.0000000066     1     4    10    10
 -0.0085986204     1     5     2     2
 -0.0000000001     1     5     2     3
 -0.0001272476     1     5     2     4
 0.0002229392     1     5     2    10
 0.0556351475     1     5     3     1
 0.0000000006     1     5     3     2
 -0.0113545522     1     5     3     3
 -0.0000000009     1     5     3     4
 -0.0000000002     1     5     3    10
 -0.0000000010     1     5     4     1
 0.1936015926     1     5     4     2
 0.0000000001     1     5     4     3
 0.0026707728     1     5     4     4
 0.0029403672     1     5     4    10
 -0.6375906141     1     5     5     1
 -0.0000000006     1     5     5     2
 0.0222858723     1     5     5     3
 0.0000000007     1     5     5     4
 0.0000000003     1     5     5    10
 -0.0094710628     1     5     6     6
 0.0000000001     1     5     6     8
 -0.0094710627     1     5     7     7
 0.0000000002     1     5     7     9
 0.0000000001     1     5     8     6
 -0.0071006454     1     5     8     8
 0.0000000002     1     5     9     7
 -0.0071006454     1     5     9     9
 0.0000000001     1     5    10     1
 -0.1151130606     1     5    10     2
 -0.0000000011     1     5    10     3
 -0.0087149590     1     5    10     4
 -0.0075941281     1     5    10    10
 0.0001712144     1     6     2     8
 0.0000600415     1     6     2     9
 -0.0009608587     1     6     4     8
 -0.0003369540     1     6     4     9
 0.0000000001     1     6     5     8
 -0.6102808966     1     6     6     1
 0.0000000008     1     6     6     2
 0.0181078805     1     6     6     3
 0.0000000004     1     6     6     4
 0.0094710628     1     6     6     5
 0.0000000002     1     6     6    10
 -0.0000000001     1     6     7     1
 0.0000000010     1     6     8     1
 -0.2140767306     1     6     8     2
 -0.0000000002     1     6     8     3
 -0.0140430974     1     6     8     4
 -0.0000000001     1     6     8     5
 -0.0085595060     1     6     8    10
 0.0000000004     1     6     9     1
 -0.0750724284     1     6     9     2
 -0.0049246335     1     6     9     4
 -0.0030016476     1     6     9    10
 -0.0002541781     1     6    10     8
 -0.0000891351     1     6    10     9
 -0.0000600415     1     7     2     8
 0.0001712144     1     7     2     9
 0.0003369540     1     7     4     8
 -0.0009608587     1     7     4     9
 -0.0000000001     1     7     6     1
 -0.6102808960     1     7     7     1
 0.0000000009     1     7     7     2
 0.0181078804     1     7     7     3
 0.0000000004     1     7     7     4
 0.0094710627     1     7     7     5
 0.0000000002     1     7     7    10
 -0.0000000004     1     7     8     1
 0.0750724282     1     7     8     2
 0.0000000001     1     7     8     3
 0.0049246335     1     7     8     4
 0.0030016476     1     7     8    10
 0.0000000010     1     7     9     1
 -0.2140767304     1     7     9     2
 -0.0000000003     1     7     9     3
 -0.0140430974     1     7     9     4
 -0.0000000002     1     7     9     5
 -0.0085595060     1     7     9    10
 0.0000891351     1     7    10     8
 -0.0002541781     1     7    10     9
 -0.0001712144     1     8     2     6
 0.0000600415     1     8     2     7
 0.0009608587     1     8     4     6
 -0.0003369540     1     8     4     7
 -0.0000000001     1     8     5     6
 0.0000000010     1     8     6     1
 -0.2142603083     1     8     6     2
 -0.0000000002     1     8     6     3
 -0.0142236054     1     8     6     4
 -0.0000000001     1     8     6     5
 -0.0084459344     1     8     6    10
 -0.0000000004     1     8     7     1
 0.0751368052     1     8     7     2
 0.0049879340     1     8     7     4
 0.0029618202     1     8     7    10
 -0.5842045641     1     8     8     1
 -0.0000000001     1     8     8     2
 0.0158188679     1     8     8     3
 0.0000000002     1     8     8     4
 0.0071006454     1     8     8     5
 0.0002541781     1     8    10     6
 -0.0000891351     1     8    10     7
 -0.0000600415     1     9     2     6
 -0.0001712144     1     9     2     7
 0.0003369540     1     9     4     6
 0.0009608587     1     9     4     7
 0.0000000004     1     9     6     1
 -0.0751368053     1     9     6     2
 -0.0049879340     1     9     6     4
 -0.0029618203     1     9     6    10
 0.0000000010     1     9     7     1
 -0.2142603081     1     9     7     2
 -0.0000000002     1     9     7     3
 -0.0142236054     1     9     7     4
 -0.0000000002     1     9     7     5
 -0.0084459343     1     9     7    10
 -0.5842045640     1     9     9     1
 -0.0000000001     1     9     9     2
 0.0158188679     1     9     9     3
 0.0000000002     1     9     9     4
 0.0071006454     1     9     9     5
 0.0000891351     1     9    10     6
 0.0002541781     1     9    10     7
 0.0045683046     1    10     2     1
 0.0000739623     1    10     2     3
 -0.0002229392     1    10     2     5
 -0.0000000001     1    10     3     1
 0.1095889633     1    10     3     2
 0.0000000003     1    10     3     3
 0.0006443481     1    10     3     4
 0.0000000002     1    10     3     5
 -0.0773214524     1    10     4     1
 -0.0000000001     1    10     4     2
 -0.0045843407     1    10     4     3
 0.0000000002     1    10     4     4
 -0.0029403672     1    10     4     5
 0.0000000001     1    10     5     1
 -0.1153265242     1    10     5     2
 -0.0000000007     1    10     5     3
 -0.0125308270     1    10     5     4
 -0.0000000003     1    10     5     5
 -0.0000000002     1    10     6     6
 0.0084459344     1    10     6     8
 0.0029618203     1    10     6     9
 -0.0000000002     1    10     7     7
 -0.0029618202     1    10     7     8
 0.0084459343     1    10     7     9
 0.0085595060     1    10     8     6
 -0.0030016476     1    10     8     7
 0.0030016476     1    10     9     6
 0.0085595060     1    10     9     7
 -0.4303290037     1    10    10     1
 -0.0000000006     1    10    10     2
 0.0043883055     1    10    10     3
 0.0000000066     1    10    10     4
 0.0075941281     1    10    10     5
 -0.3528434495     2     1     1     2
 -0.0025335056     2     1     1     4
 0.0045683046     2     1     1    10
 -0.0027975842     2     1     3     2
 -0.0000000004     2     1     3     3
 -0.2408978662     2     1     3     4
 -0.0000000006     2     1     3     5
 -0.1095124534     2     1     3    10
 -0.2408485608     2     1     4     3
 -0.0000000008     2     1     4     4
 -0.1937289234     2     1     4     5
 0.0000000001     2     1     4    10
 0.0085986204     2     1     5     2
 -0.0000000006     2     1     5     3
 -0.1936015926     2     1     5     4
 0.0000000006     2     1     5     5
 0.1151130606     2     1     5    10
 -0.0000000008     2     1     6     6
 0.2140767306     2     1     6     8
 0.0750724284     2     1     6     9
 -0.0000000009     2     1     7     7
 -0.0750724282     2     1     7     8
 0.2140767304     2     1     7     9
 0.2142603083     2     1     8     6
 -0.0751368052     2     1     8     7
 0.0000000001     2     1     8     8
 0.0751368053     2     1     9     6
 0.2142603081     2     1     9     7
 0.0000000001     2     1     9     9
 -0.1095889633     2     1    10     3
 0.0000000001     2     1    10     4
 0.1153265242     2     1    10     5
 0.0000000006     2     1    10    10
 0.3528434495     2     2     1     1
 0.0027975842     2     2     1     3
 -0.0085986204     2     2     1     5
 0.0027975842     2     2     3     1
 0.6597625402     2     2     3     3
 0.0000000002     2     2     3     4
 -0.0557410910     2     2     3     5
 -0.0000000001     2     2     3    10
 0.0000000002     2     2     4     3
 0.6141444302     2     2     4     4
 0.0000000006     2     2     4     5
 0.0773696097     2     2     4    10
 -0.0085986204     2     2     5     1
 -0.0557410910     2     2     5     3
 0.0000000006     2     2     5     4
 0.6380158234     2     2     5     5
 0.0000000002     2     2     5    10
 0.6104822395     2     2     6     6
 0.0000000001     2     2     6     7
 -0.0000000005     2     2     6     8
 -0.0000000002     2     2     6     9
 0.0000000001     2     2     7     6
 0.6104822389     2     2     7     7
 0.0000000002     2     2     7     8
 -0.0000000004     2     2     7     9
 -0.0000000005     2     2     8     6
 0.0000000002     2     2     8     7
 0.5840663134     2     2     8     8
 -0.0000000002     2     2     9     6
 -0.0000000004     2     2     9     7
 0.5840663133     2     2     9     9
 -0.0000000001     2     2    10     3
 0.0773696097     2     2    10     4
 0.0000000002     2     2    10     5
 0.4302128018     2     2    10    10
 -0.0027975842     2     3     1     2
 -0.0000492906     2     3     1     4
 -0.0000000001     2     3     1     5
 0.0000739623     2     3     1    10
 0.0000000004     2     3     3     1
 -0.6597625402     2     3     3     2
 -0.0037845465     2     3     3     4
 -0.0000000011     2     3     3     5
 0.0066102969     2     3     3    10
 0.2408485608     2     3     4     1
 -0.0000000002     2     3     4     2
 0.0096842649     2     3     4     5
 0.0000000001     2     3     4    10
 0.0000000006     2     3     5     1
 0.0557410910     2     3     5     2
 0.0121708291     2     3     5     4
 0.0000000013     2     3     5     5
 -0.0108480268     2     3     5    10
 0.0000000003     2     3     6     6
 -0.0176945926     2     3     6     8
 -0.0062051398     2     3     6     9
 0.0000000003     2     3     7     7
 0.0062051398     2     3     7     8
 -0.0176945926     2     3     7     9
 -0.0137260791     2     3     8     6
 0.0048134614     2     3     8     7
 0.0000000002     2     3     8     8
 -0.0048134615     2     3     9     6
 -0.0137260790     2     3     9     7
 0.0000000001     2     3     9     9
 0.1095889633     2     3    10     1
 0.0000000001     2     3    10     2
 -0.0000000004     2     3    10     4
 -0.0086991410     2     3    10     5
 0.0000000070     2     3    10    10
 0.0025335056     2     4     1     1
 0.0000492906     2     4     1     3
 -0.0001272476     2     4     1     5
 0.2408978662     2     4     3     1
 -0.0000000002     2     4     3     2
 0.0037845465     2     4     3     3
 -0.0025070336     2     4     3     5
 0.0000000004     2     4     3    10
 0.0000000008     2     4     4     1
 -0.6141444302     2     4     4     2
 0.0000000003     2     4     4     5
 -0.0025850170     2     4     4    10
 0.1936015926     2     4     5     1
 -0.0000000006     2     4     5     2
 -0.0121708291     2     4     5     3
 0.0203634059     2     4     5     5
 -0.0000000008     2     4     5    10
 0.0192881035     2     4     6     6
 -0.0000000002     2     4     6     8
 0.0192881034     2     4     7     7
 0.0000000001     2     4     7     8
 -0.0000000002     2     4     7     9
 -0.0000000002     2     4     8     6
 0.0000000001     2     4     8     7
 0.0189482249     2     4     8     8
 -0.0000000001     2     4     9     6
 -0.0000000003     2     4     9     7
 0.0189482249     2     4     9     9
 -0.0000000001     2     4    10     1
 -0.0773696097     2     4    10     2
 0.0000000004     2     4    10     3
 -0.0000000011     2     4    10     5
 0.0085623294     2     4    10    10
 0.0085986204     2     5     1     2
 0.0000000001     2     5     1     3
 0.0001272476     2     5     1     4
 -0.0002229392     2     5     1    10
 0.0000000006     2     5     3     1
 0.0557410910     2     5     3     2
 0.0000000011     2     5     3     3
 0.0025070336     2     5     3     4
 -0.0015442371     2     5     3    10
 0.1937289234     2     5     4     1
 -0.0000000006     2     5     4     2
 -0.0096842649     2     5     4     3
 -0.0000000003     2     5     4     4
 0.0000000002     2     5     4    10
 -0.0000000006     2     5     5     1
 -0.6380158234     2     5     5     2
 -0.0000000013     2     5     5     3
 -0.0203634059     2     5     5     4
 -0.0052083544     2     5     5    10
 0.0000000003     2     5     6     6
 -0.0007871124     2     5     6     8
 -0.0002760246     2     5     6     9
 0.0000000003     2     5     7     7
 0.0002760246     2     5     7     8
 -0.0007871124     2     5     7     9
 -0.0020345957     2     5     8     6
 0.0007134920     2     5     8     7
 -0.0000000001     2     5     8     8
 -0.0007134920     2     5     9     6
 -0.0020345958     2     5     9     7
 0.0000000001     2     5     9     9
 -0.1153265242     2     5    10     1
 -0.0000000002     2     5    10     2
 0.0086991410     2     5    10     3
 0.0000000011     2     5    10     4
 0.0000000004     2     5    10    10
 -0.0001712144     2     6     1     8
 -0.0000600415     2     6     1     9
 -0.0028518728     2     6     3     8
 -0.0010000948     2     6     3     9
 0.0011895433     2     6     5     8
 0.0004171491     2     6     5     9
 0.0000000008     2     6     6     1
 -0.6104822395     2     6     6     2
 -0.0000000003     2     6     6     3
 -0.0192881035     2     6     6     4
 -0.0000000003     2     6     6     5
 -0.0049498779     2     6     6    10
 -0.0000000001     2     6     7     2
 -0.2142603083     2     6     8     1
 0.0000000005     2     6     8     2
 0.0137260791     2     6     8     3
 0.0000000002     2     6     8     4
 0.0020345957     2     6     8     5
 0.0000000003     2     6     8    10
 -0.0751368053     2     6     9     1
 0.0000000002     2     6     9     2
 0.0048134615     2     6     9     3
 0.0000000001     2     6     9     4
 0.0007134920     2     6     9     5
 0.0000000001     2     6     9    10
 0.0000000001     2     6    10     8
 0.0000600415     2     7     1     8
 -0.0001712144     2     7     1     9
 0.0010000948     2     7     3     8
 -0.0028518727     2     7     3     9
 0.0000000001     2     7     4     9
 -0.0004171491     2     7     5     8
 0.0011895433     2     7     5     9
 -0.0000000001     2     7     6     2
 0.0000000009     2     7     7     1
 -0.6104822389     2     7     7     2
 -0.0000000003     2     7     7     3
 -0.0192881034     2     7     7     4
 -0.0000000003     2     7     7     5
 -0.0049498779     2     7     7    10
 0.0751368052     2     7     8     1
 -0.0000000002     2     7     8     2
 -0.0048134614     2     7     8     3
 -0.0000000001     2     7     8     4
 -0.0007134920     2     7     8     5
 -0.0000000001     2     7     8    10
 -0.2142603081     2     7     9     1
 0.0000000004     2     7     9     2
 0.0137260790     2     7     9     3
 0.0000000003     2     7     9     4
 0.0020345958     2     7     9     5
 0.0000000002     2     7     9    10
 0.0001712144     2     8     1     6
 -0.0000600415     2     8     1     7
 0.0028518728     2     8     3     6
 -0.0010000948     2     8     3     7
 -0.0011895433     2     8     5     6
 0.0004171491     2     8     5     7
 -0.2140767306     2     8     6     1
 0.0000000005     2     8     6     2
 0.0176945926     2     8     6     3
 0.0000000002     2     8     6     4
 0.0007871124     2     8     6     5
 0.0000000003     2     8     6    10
 0.0750724282     2     8     7     1
 -0.0000000002     2     8     7     2
 -0.0062051398     2     8     7     3
 -0.0000000001     2     8     7     4
 -0.0002760246     2     8     7     5
 -0.0000000001     2     8     7    10
 -0.0000000001     2     8     8     1
 -0.5840663134     2     8     8     2
 -0.0000000002     2     8     8     3
 -0.0189482249     2     8     8     4
 0.0000000001     2     8     8     5
 -0.0070074040     2     8     8    10
 -0.0000000001     2     8    10     6
 0.0000600415     2     9     1     6
 0.0001712144     2     9     1     7
 0.0010000948     2     9     3     6
 0.0028518727     2     9     3     7
 -0.0000000001     2     9     4     7
 -0.0004171491     2     9     5     6
 -0.0011895433     2     9     5     7
 -0.0750724284     2     9     6     1
 0.0000000002     2     9     6     2
 0.0062051398     2     9     6     3
 0.0002760246     2     9     6     5
 0.0000000001     2     9     6    10
 -0.2140767304     2     9     7     1
 0.0000000004     2     9     7     2
 0.0176945926     2     9     7     3
 0.0000000002     2     9     7     4
 0.0007871124     2     9     7     5
 0.0000000001     2     9     7    10
 -0.0000000001     2     9     9     1
 -0.5840663133     2     9     9     2
 -0.0000000001     2     9     9     3
 -0.0189482249     2     9     9     4
 -0.0000000001     2     9     9     5
 -0.0070074040     2     9     9    10
 -0.0045683046     2    10     1     1
 -0.0000739623     2    10     1     3
 0.0002229392     2    10     1     5
 0.1095124534     2    10     3     1
 0.0000000001     2    10     3     2
 -0.0066102969     2    10     3     3
 -0.0000000004     2    10     3     4
 0.0015442371     2    10     3     5
 -0.0000000001     2    10     4     1
 -0.0773696097     2    10     4     2
 -0.0000000001     2    10     4     3
 0.0025850170     2    10     4     4
 -0.0000000002     2    10     4     5
 -0.1151130606     2    10     5     1
 -0.0000000002     2    10     5     2
 0.0108480268     2    10     5     3
 0.0000000008     2    10     5     4
 0.0052083544     2    10     5     5
 0.0049498779     2    10     6     6
 -0.0000000003     2    10     6     8
 -0.0000000001     2    10     6     9
 0.0049498779     2    10     7     7
 0.0000000001     2    10     7     8
 -0.0000000001     2    10     7     9
 -0.0000000003     2    10     8     6
 0.0000000001     2    10     8     7
 0.0070074040     2    10     8     8
 -0.0000000001     2    10     9     6
 -0.0000000002     2    10     9     7
 0.0070074040     2    10     9     9
 -0.0000000006     2    10    10     1
 -0.4302128018     2    10    10     2
 -0.0000000070     2    10    10     3
 -0.0085623294     2    10    10     4
 -0.0000000004     2    10    10     5
 -0.6597586474     3     1     1     3
 -0.0000000009     3     1     1     4
 0.0556351475     3     1     1     5
 -0.0000000001     3     1     1    10
 0.0027975842     3     1     2     2
 0.0000000004     3     1     2     3
 0.2408978662     3     1     2     4
 0.0000000006     3     1     2     5
 0.1095124534     3     1     2    10
 0.0000492906     3     1     4     2
 0.0000000008     3     1     4     3
 -0.0036838008     3     1     4     4
 -0.0000000010     3     1     4     5
 0.0048612060     3     1     4    10
 0.0000000001     3     1     5     2
 0.0113545522     3     1     5     3
 -0.0000000001     3     1     5     4
 -0.0222858723     3     1     5     5
 0.0000000011     3     1     5    10
 -0.0181078805     3     1     6     6
 0.0000000002     3     1     6     8
 -0.0181078804     3     1     7     7
 -0.0000000001     3     1     7     8
 0.0000000003     3     1     7     9
 0.0000000002     3     1     8     6
 -0.0158188679     3     1     8     8
 0.0000000002     3     1     9     7
 -0.0158188679     3     1     9     9
 -0.0000739623     3     1    10     2
 -0.0000000003     3     1    10     3
 0.0045843407     3     1    10     4
 0.0000000007     3     1    10     5
 -0.0043883055     3     1    10    10
 0.0000000004     3     2     1     3
 0.2408485608     3     2     1     4
 0.0000000006     3     2     1     5
 0.1095889633     3     2     1    10
 -0.0027975842     3     2     2     1
 -0.6597625402     3     2     2     3
 -0.0000000002     3     2     2     4
 0.0557410910     3     2     2     5
 0.0000000001     3     2     2    10
 -0.0000492906     3     2     4     1
 -0.0037845465     3     2     4     3
 0.0121708291     3     2     4     5
 -0.0000000004     3     2     4    10
 -0.0000000001     3     2     5     1
 -0.0000000011     3     2     5     3
 0.0096842649     3     2     5     4
 0.0000000013     3     2     5     5
 -0.0086991410     3     2     5    10
 0.0000000003     3     2     6     6
 -0.0137260791     3     2     6     8
 -0.0048134615     3     2     6     9
 0.0000000003     3     2     7     7
 0.0048134614     3     2     7     8
 -0.0137260790     3     2     7     9
 -0.0176945926     3     2     8     6
 0.0062051398     3     2     8     7
 0.0000000002     3     2     8     8
 -0.0062051398     3     2     9     6
 -0.0176945926     3     2     9     7
 0.0000000001     3     2     9     9
 0.0000739623     3     2    10     1
 0.0066102969     3     2    10     3
 0.0000000001     3     2    10     4
 -0.0108480268     3     2    10     5
 0.0000000070     3     2    10    10
 0.6597586474     3     3     1     1
 -0.0000000004     3     3     1     2
 -0.0000000008     3     3     1     4
 -0.0113545522     3     3     1     5
 0.0000000003     3     3     1    10
 -0.0000000004     3     3     2     1
 0.6597625402     3     3     2     2
 0.0037845465     3     3     2     4
 0.0000000011     3     3     2     5
 -0.0066102969     3     3     2    10
 -0.0000000008     3     3     4     1
 0.0037845465     3     3     4     2
 0.3622512836     3     3     4     4
 -0.0000000007     3     3     4     5
 0.0256509082     3     3     4    10
 -0.0113545522     3     3     5     1
 0.0000000011     3     3     5     2
 -0.0000000007     3     3     5     4
 0.4379593207     3     3     5     5
 0.0000000005     3     3     5    10
 0.4441283980     3     3     6     6
 0.0000000001     3     3     6     7
 -0.0000000003     3     3     6     8
 -0.0000000001     3     3     6     9
 0.0000000001     3     3     7     6
 0.4441283976     3     3     7     7
 0.0000000001     3     3     7     8
 -0.0000000003     3     3     7     9
 -0.0000000003     3     3     8     6
 0.0000000001     3     3     8     7
 0.4406542944     3     3     8     8
 0.0000000001     3     3     8     9
 -0.0000000001     3     3     9     6
 -0.0000000003     3     3     9     7
 0.0000000001     3     3     9     8
 0.4406542943     3     3     9     9
 0.0000000003     3     3    10     1
 -0.0066102969     3     3    10     2
 0.0256509082     3     3    10     4
 0.0000000005     3     3    10     5
 0.3387114652     3     3    10    10
 0.0000000009     3     4     1     1
 -0.2408485608     3     4     1     2
 0.0000000008     3     4     1     3
 -0.0000000009     3     4     1     5
 0.0006443481     3     4     1    10
 -0.2408978662     3     4     2     1
 0.0000000002     3     4     2     2
 -0.0037845465     3     4     2     3
 0.0025070336     3     4     2     5
 -0.0000000004     3     4     2    10
 0.0036838008     3     4     4     1
 -0.3622512836     3     4     4     3
 0.1073649016     3     4     4     5
 0.0000000003     3     4     4    10
 0.0000000001     3     4     5     1
 -0.0096842649     3     4     5     2
 0.0000000007     3     4     5     3
 -0.0000000011     3     4     5     5
 -0.0731899348     3     4     5    10
 -0.0000000001     3     4     6     6
 -0.0746920652     3     4     6     8
 -0.0261930136     3     4     6     9
 -0.0000000001     3     4     7     7
 0.0261930135     3     4     7     8
 -0.0746920651     3     4     7     9
 -0.0596518617     3     4     8     6
 0.0209187148     3     4     8     7
 0.0000000002     3     4     8     8
 0.0000000001     3     4     8     9
 -0.0209187150     3     4     9     6
 -0.0596518615     3     4     9     7
 0.0000000001     3     4     9     8
 0.0000000001     3     4     9     9
 -0.0045843407     3     4    10     1
 -0.0000000001     3     4    10     2
 -0.0256509082     3     4    10     3
 -0.0287665241     3     4    10     5
 -0.0000000029     3     4    10    10
 -0.0556351475     3     5     1     1
 -0.0000000006     3     5     1     2
 0.0113545522     3     5     1     3
 0.0000000009     3     5     1     4
 0.0000000002     3     5     1    10
 -0.0000000006     3     5     2     1
 -0.0557410910     3     5     2     2
 -0.0000000011     3     5     2     3
 -0.0025070336     3     5     2     4
 0.0015442371     3     5     2    10
 0.0000000010     3     5     4     1
 -0.0121708291     3     5     4     2
 0.0000000007     3     5     4     3
 -0.1073649016     3     5     4     4
 -0.0452556466     3     5     4    10
 0.0222858723     3     5     5     1
 -0.0000000013     3     5     5     2
 -0.4379593207     3     5     5     3
 0.0000000011     3     5     5     4
 -0.0000000004     3     5     5    10
 -0.0504318004     3     5     6     6
 -0.0000000002     3     5     6     8
 -0.0000000001     3     5     6     9
 -0.0504318004     3     5     7     7
 -0.0000000001     3     5     7     9
 -0.0000000001     3     5     8     6
 -0.0000000002     3     5     8     7
 -0.0389428971     3     5     8     8
 -0.0000000002     3     5     9     6
 0.0000000002     3     5     9     7