&FCI NORB= 10,NELEC= 14,MS2=0,
 ORBSYM=1,1,1,1,1,1,1,1,1,1
 ISYM=1,
&END
 0.3307749656     1     1     2     2
 -0.0000000007     1     1     2     3
 0.0019581196     1     1     2     4
 0.0000000027     1     1     2     5
 -0.0054554444     1     1     2    10
 -0.0000000007     1     1     3     2
 0.6380923708     1     1     3     3
 -0.0000001891     1     1     3     4
 -0.0454038159     1     1     3     5
 -0.0000000836     1     1     3    10
 0.0019581196     1     1     4     2
 -0.0000001891     1     1     4     3
 0.6090857797     1     1     4     4
 -0.0000001293     1     1     4     5
 0.0696201049     1     1     4    10
 0.0000000027     1     1     5     2
 -0.0454038159     1     1     5     3
 -0.0000001293     1     1     5     4
 0.6266210154     1     1     5     5
 0.0000001237     1     1     5    10
 0.5995887327     1     1     6     6
 0.0000000001     1     1     6     7
 0.0000001761     1     1     6     8
 0.0000000026     1     1     6     9
 0.0000000001     1     1     7     6
 0.5995887329     1     1     7     7
 0.0000000026     1     1     7     8
 -0.0000001761     1     1     7     9
 0.0000001761     1     1     8     6
 0.0000000026     1     1     8     7
 0.5814511247     1     1     8     8
 0.0000000001     1     1     8     9
 0.0000000026     1     1     9     6
 -0.0000001761     1     1     9     7
 0.0000000001     1     1     9     8
 0.5814511246     1     1     9     9
 -0.0054554444     1     1    10     2
 -0.0000000836     1     1    10     3
 0.0696201049     1     1    10     4
 0.0000001237     1     1    10     5
 0.5197287370     1     1    10    10
 -0.3307749656     1     2     2     1
 0.0020344896     1     2     2     3
 0.0000000007     1     2     2     4
 -0.0075249932     1     2     2     5
 -0.0000000019     1     2     2    10
 0.0000000007     1     2     3     1
 -0.0000000002     1     2     3     3
 0.2605889585     1     2     3     4
 0.0000000002     1     2     3     5
 0.1151723628     1     2     3    10
 -0.0019581196     1     2     4     1
 0.2606229281     1     2     4     3
 0.0000000001     1     2     4     4
 0.1783284060     1     2     4     5
 -0.0000000002     1     2     4    10
 -0.0000000027     1     2     5     1
 0.0000000002     1     2     5     3
 0.1784229298     1     2     5     4
 -0.0000000002     1     2     5     5
 -0.1699930768     1     2     5    10
 -0.0000000003     1     2     6     6
 -0.2428229417     1     2     6     8
 -0.0034732248     1     2     6     9
 -0.0000000003     1     2     7     7
 -0.0034732249     1     2     7     8
 0.2428229418     1     2     7     9
 -0.2426656938     1     2     8     6
 -0.0034709757     1     2     8     7
 -0.0034709757     1     2     9     6
 0.2426656939     1     2     9     7
 0.0054554444     1     2    10     1
 0.1151013933     1     2    10     3
 -0.0000000002     1     2    10     4
 -0.1697539182     1     2    10     5
 -0.0000000002     1     2    10    10
 0.0000000007     1     3     2     1
 -0.0020344896     1     3     2     2
 -0.0000336275     1     3     2     4
 0.0000695724     1     3     2    10
 -0.6380923708     1     3     3     1
 0.0000000002     1     3     3     2
 0.0000000009     1     3     3     4
 -0.0094494409     1     3     3     5
 -0.0000000027     1     3     3    10
 0.0000001891     1     3     4     1
 -0.2606229281     1     3     4     2
 0.0028641243     1     3     4     4
 -0.0000000030     1     3     4     5
 -0.0056676190     1     3     4    10
 0.0454038159     1     3     5     1
 -0.0000000002     1     3     5     2
 -0.0000000035     1     3     5     4
 0.0217785088     1     3     5     5
 0.0000000054     1     3     5    10
 0.0184081392     1     3     6     6
 0.0000000069     1     3     6     8
 0.0000000001     1     3     6     9
 0.0184081392     1     3     7     7
 0.0000000001     1     3     7     8
 -0.0000000068     1     3     7     9
 0.0000000055     1     3     8     6
 0.0000000001     1     3     8     7
 0.0163745510     1     3     8     8
 0.0000000001     1     3     9     6
 -0.0000000055     1     3     9     7
 0.0163745510     1     3     9     9
 0.0000000836     1     3    10     1
 -0.1151013933     1     3    10     2
 -0.0056379191     1     3    10     4
 0.0000000042     1     3    10     5
 0.0089508159     1     3    10    10
 -0.0019581196     1     4     2     1
 -0.0000000007     1     4     2     2
 0.0000336275     1     4     2     3
 -0.0000939386     1     4     2     5
 0.0000001891     1     4     3     1
 -0.2605889585     1     4     3     2
 -0.0000000009     1     4     3     3
 0.0000000005     1     4     3     5
 0.0004055445     1     4     3    10
 -0.6090857797     1     4     4     1
 -0.0000000001     1     4     4     2
 -0.0028641243     1     4     4     3
 0.0024503416     1     4     4     5
 0.0000000009     1     4     4    10
 0.0000001293     1     4     5     1
 -0.1784229298     1     4     5     2
 0.0000000035     1     4     5     3
 -0.0000000071     1     4     5     5
 -0.0161482155     1     4     5    10
 -0.0000000071     1     4     6     6
 -0.0159975683     1     4     6     8
 -0.0002288216     1     4     6     9
 -0.0000000071     1     4     7     7
 -0.0002288216     1     4     7     8
 0.0159975682     1     4     7     9
 -0.0156266586     1     4     8     6
 -0.0002235164     1     4     8     7
 -0.0000000070     1     4     8     8
 -0.0002235164     1     4     9     6
 0.0156266586     1     4     9     7
 -0.0000000070     1     4     9     9
 -0.0696201049     1     4    10     1
 0.0000000002     1     4    10     2
 0.0056379191     1     4    10     3
 -0.0119936479     1     4    10     5
 -0.0000000048     1     4    10    10
 -0.0000000027     1     5     2     1
 0.0075249932     1     5     2     2
 0.0000939386     1     5     2     4
 -0.0002477471     1     5     2    10
 0.0454038159     1     5     3     1
 -0.0000000002     1     5     3     2
 0.0094494409     1     5     3     3
 -0.0000000005     1     5     3     4
 0.0000000009     1     5     3    10
 0.0000001293     1     5     4     1
 -0.1783284060     1     5     4     2
 0.0000000030     1     5     4     3
 -0.0024503416     1     5     4     4
 -0.0030316562     1     5     4    10
 -0.6266210154     1     5     5     1
 0.0000000002     1     5     5     2
 -0.0217785088     1     5     5     3
 0.0000000071     1     5     5     4
 0.0000000017     1     5     5    10
 0.0083459154     1     5     6     6
 0.0000000004     1     5     6     8
 0.0083459154     1     5     7     7
 -0.0000000003     1     5     7     9
 0.0000000007     1     5     8     6
 0.0065757972     1     5     8     8
 -0.0000000007     1     5     9     7
 0.0065757972     1     5     9     9
 -0.0000001237     1     5    10     1
 0.1697539182     1     5    10     2
 -0.0000000042     1     5    10     3
 0.0119936479     1     5    10     4
 0.0112351928     1     5    10    10
 -0.0001489952     1     6     2     8
 -0.0000021312     1     6     2     9
 0.0000000009     1     6     3     8
 0.0008044245     1     6     4     8
 0.0000115061     1     6     4     9
 -0.0000000004     1     6     5     8
 -0.5995887327     1     6     6     1
 0.0000000003     1     6     6     2
 -0.0184081392     1     6     6     3
 0.0000000071     1     6     6     4
 -0.0083459154     1     6     6     5
 0.0000000017     1     6     6    10
 -0.0000000001     1     6     7     1
 -0.0000001761     1     6     8     1
 0.2426656938     1     6     8     2
 -0.0000000055     1     6     8     3
 0.0156266586     1     6     8     4
 -0.0000000007     1     6     8     5
 0.0094733575     1     6     8    10
 -0.0000000026     1     6     9     1
 0.0034709757     1     6     9     2
 -0.0000000001     1     6     9     3
 0.0002235164     1     6     9     4
 0.0001355025     1     6     9    10
 0.0002272015     1     6    10     8
 0.0000032498     1     6    10     9
 -0.0000021312     1     7     2     8
 0.0001489952     1     7     2     9
 -0.0000000009     1     7     3     9
 0.0000115061     1     7     4     8
 -0.0008044245     1     7     4     9
 0.0000000004     1     7     5     9
 -0.0000000001     1     7     6     1
 -0.5995887329     1     7     7     1
 0.0000000003     1     7     7     2
 -0.0184081392     1     7     7     3
 0.0000000071     1     7     7     4
 -0.0083459154     1     7     7     5
 0.0000000017     1     7     7    10
 -0.0000000026     1     7     8     1
 0.0034709757     1     7     8     2
 -0.0000000001     1     7     8     3
 0.0002235164     1     7     8     4
 0.0001355024     1     7     8    10
 0.0000001761     1     7     9     1
 -0.2426656939     1     7     9     2
 0.0000000055     1     7     9     3
 -0.0156266586     1     7     9     4
 0.0000000007     1     7     9     5
 -0.0094733575     1     7     9    10
 0.0000032497     1     7    10     8
 -0.0002272015     1     7    10     9
 0.0001489952     1     8     2     6
 0.0000021312     1     8     2     7
 -0.0000000009     1     8     3     6
 -0.0008044245     1     8     4     6
 -0.0000115061     1     8     4     7
 0.0000000004     1     8     5     6
 -0.0000001761     1     8     6     1
 0.2428229417     1     8     6     2
 -0.0000000069     1     8     6     3
 0.0159975683     1     8     6     4
 -0.0000000004     1     8     6     5
 0.0094495035     1     8     6    10
 -0.0000000026     1     8     7     1
 0.0034732249     1     8     7     2
 -0.0000000001     1     8     7     3
 0.0002288216     1     8     7     4
 0.0001351612     1     8     7    10
 -0.5814511247     1     8     8     1
 -0.0163745510     1     8     8     3
 0.0000000070     1     8     8     4
 -0.0065757972     1     8     8     5
 0.0000000025     1     8     8    10
 -0.0000000001     1     8     9     1
 -0.0002272015     1     8    10     6
 -0.0000032497     1     8    10     7
 0.0000021312     1     9     2     6
 -0.0001489952     1     9     2     7
 0.0000000009     1     9     3     7
 -0.0000115061     1     9     4     6
 0.0008044245     1     9     4     7
 -0.0000000004     1     9     5     7
 -0.0000000026     1     9     6     1
 0.0034732248     1     9     6     2
 -0.0000000001     1     9     6     3
 0.0002288216     1     9     6     4
 0.0001351613     1     9     6    10
 0.0000001761     1     9     7     1
 -0.2428229418     1     9     7     2
 0.0000000068     1     9     7     3
 -0.0159975682     1     9     7     4
 0.0000000003     1     9     7     5
 -0.0094495034     1     9     7    10
 -0.0000000001     1     9     8     1
 -0.5814511246     1     9     9     1
 -0.0163745510     1     9     9     3
 0.0000000070     1     9     9     4
 -0.0065757972     1     9     9     5
 0.0000000025     1     9     9    10
 -0.0000032498     1     9    10     6
 0.0002272015     1     9    10     7
 0.0054554444     1    10     2     1
 0.0000000019     1    10     2     2
 -0.0000695724     1    10     2     3
 0.0002477471     1    10     2     5
 0.0000000836     1    10     3     1
 -0.1151723628     1    10     3     2
 0.0000000027     1    10     3     3
 -0.0004055445     1    10     3     4
 -0.0000000009     1    10     3     5
 -0.0696201049     1    10     4     1
 0.0000000002     1    10     4     2
 0.0056676190     1    10     4     3
 -0.0000000009     1    10     4     4
 0.0030316562     1    10     4     5
 -0.0000001237     1    10     5     1
 0.1699930768     1    10     5     2
 -0.0000000054     1    10     5     3
 0.0161482155     1    10     5     4
 -0.0000000017     1    10     5     5
 -0.0000000017     1    10     6     6
 -0.0094495035     1    10     6     8
 -0.0001351613     1    10     6     9
 -0.0000000017     1    10     7     7
 -0.0001351612     1    10     7     8
 0.0094495034     1    10     7     9
 -0.0094733575     1    10     8     6
 -0.0001355024     1    10     8     7
 -0.0000000025     1    10     8     8
 -0.0001355025     1    10     9     6
 0.0094733575     1    10     9     7
 -0.0000000025     1    10     9     9
 -0.5197287370     1    10    10     1
 0.0000000002     1    10    10     2
 -0.0089508159     1    10    10     3
 0.0000000048     1    10    10     4
 -0.0112351928     1    10    10     5
 -0.3307749656     2     1     1     2
 0.0000000007     2     1     1     3
 -0.0019581196     2     1     1     4
 -0.0000000027     2     1     1     5
 0.0054554444     2     1     1    10
 0.0020344896     2     1     3     2
 -0.0000000002     2     1     3     3
 0.2606229281     2     1     3     4
 0.0000000002     2     1     3     5
 0.1151013933     2     1     3    10
 0.0000000007     2     1     4     2
 0.2605889585     2     1     4     3
 0.0000000001     2     1     4     4
 0.1784229298     2     1     4     5
 -0.0000000002     2     1     4    10
 -0.0075249932     2     1     5     2
 0.0000000002     2     1     5     3
 0.1783284060     2     1     5     4
 -0.0000000002     2     1     5     5
 -0.1697539182     2     1     5    10
 -0.0000000003     2     1     6     6
 -0.2426656938     2     1     6     8
 -0.0034709757     2     1     6     9
 -0.0000000003     2     1     7     7
 -0.0034709757     2     1     7     8
 0.2426656939     2     1     7     9
 -0.2428229417     2     1     8     6
 -0.0034732249     2     1     8     7
 -0.0034732248     2     1     9     6
 0.2428229418     2     1     9     7
 -0.0000000019     2     1    10     2
 0.1151723628     2     1    10     3
 -0.0000000002     2     1    10     4
 -0.1699930768     2     1    10     5
 -0.0000000002     2     1    10    10
 0.3307749656     2     2     1     1
 -0.0020344896     2     2     1     3
 -0.0000000007     2     2     1     4
 0.0075249932     2     2     1     5
 0.0000000019     2     2     1    10
 -0.0020344896     2     2     3     1
 0.6380846751     2     2     3     3
 0.0000001891     2     2     3     4
 -0.0454687324     2     2     3     5
 0.0000000836     2     2     3    10
 -0.0000000007     2     2     4     1
 0.0000001891     2     2     4     3
 0.6090765178     2     2     4     4
 0.0000001297     2     2     4     5
 0.0696656929     2     2     4    10
 0.0075249932     2     2     5     1
 -0.0454687324     2     2     5     3
 0.0000001297     2     2     5     4
 0.6269670649     2     2     5     5
 -0.0000001229     2     2     5    10
 0.5997535920     2     2     6     6
 0.0000000001     2     2     6     7
 -0.0000001762     2     2     6     8
 -0.0000000026     2     2     6     9
 0.0000000001     2     2     7     6
 0.5997535922     2     2     7     7
 -0.0000000026     2     2     7     8
 0.0000001762     2     2     7     9
 -0.0000001762     2     2     8     6
 -0.0000000026     2     2     8     7
 0.5813375138     2     2     8     8
 0.0000000001     2     2     8     9
 -0.0000000026     2     2     9     6
 0.0000001762     2     2     9     7
 0.0000000001     2     2     9     8
 0.5813375137     2     2     9     9
 0.0000000019     2     2    10     1
 0.0000000836     2     2    10     3
 0.0696656929     2     2    10     4
 -0.0000001229     2     2    10     5
 0.5195496509     2     2    10    10
 -0.0000000007     2     3     1     1
 0.0020344896     2     3     1     2
 0.0000336275     2     3     1     4
 -0.0000695724     2     3     1    10
 0.0000000002     2     3     3     1
 -0.6380846751     2     3     3     2
 -0.0026423879     2     3     3     4
 -0.0000000035     2     3     3     5
 0.0076466882     2     3     3    10
 -0.2605889585     2     3     4     1
 -0.0000001891     2     3     4     2
 0.0000000011     2     3     4     4
 0.0084822735     2     3     4     5
 -0.0000000021     2     3     4    10
 -0.0000000002     2     3     5     1
 0.0454687324     2     3     5     2
 0.0101675444     2     3     5     4
 0.0000000082     2     3     5     5
 -0.0153090058     2     3     5    10
 0.0000000066     2     3     6     6
 -0.0187093649     2     3     6     8
 -0.0002676099     2     3     6     9
 0.0000000066     2     3     7     7
 -0.0002676099     2     3     7     8
 0.0187093650     2     3     7     9
 -0.0151084515     2     3     8     6
 -0.0002161042     2     3     8     7
 0.0000000059     2     3     8     8
 -0.0002161041     2     3     9     6
 0.0151084516     2     3     9     7
 0.0000000059     2     3     9     9
 -0.1151723628     2     3    10     1
 -0.0000000836     2     3    10     2
 -0.0000000022     2     3    10     4
 -0.0119328933     2     3    10     5
 0.0000000043     2     3    10    10
 0.0019581196     2     4     1     1
 0.0000000007     2     4     1     2
 -0.0000336275     2     4     1     3
 0.0000939386     2     4     1     5
 -0.2606229281     2     4     3     1
 -0.0000001891     2     4     3     2
 0.0026423879     2     4     3     3
 -0.0017110443     2     4     3     5
 0.0000000002     2     4     3    10
 -0.0000000001     2     4     4     1
 -0.6090765178     2     4     4     2
 -0.0000000011     2     4     4     3
 0.0000000011     2     4     4     5
 -0.0028111735     2     4     4    10
 -0.1783284060     2     4     5     1
 -0.0000001297     2     4     5     2
 -0.0101675444     2     4     5     3
 0.0202072354     2     4     5     5
 -0.0000000061     2     4     5    10
 0.0193516484     2     4     6     6
 -0.0000000057     2     4     6     8
 -0.0000000001     2     4     6     9
 0.0193516483     2     4     7     7
 -0.0000000001     2     4     7     8
 0.0000000058     2     4     7     9
 -0.0000000056     2     4     8     6
 -0.0000000002     2     4     8     7
 0.0191962021     2     4     8     8
 -0.0000000001     2     4     9     6
 0.0000000056     2     4     9     7
 0.0191962021     2     4     9     9
 0.0000000002     2     4    10     1
 -0.0696656929     2     4    10     2
 0.0000000022     2     4    10     3
 -0.0000000046     2     4    10     5
 0.0143224342     2     4    10    10
 0.0000000027     2     5     1     1
 -0.0075249932     2     5     1     2
 -0.0000939386     2     5     1     4
 0.0002477471     2     5     1    10
 -0.0000000002     2     5     3     1
 0.0454687324     2     5     3     2
 0.0000000035     2     5     3     3
 0.0017110443     2     5     3     4
 -0.0025322886     2     5     3    10
 -0.1784229298     2     5     4     1
 -0.0000001297     2     5     4     2
 -0.0084822735     2     5     4     3
 -0.0000000011     2     5     4     4
 -0.0000000011     2     5     4    10
 0.0000000002     2     5     5     1
 -0.6269670649     2     5     5     2
 -0.0000000082     2     5     5     3
 -0.0202072354     2     5     5     4
 -0.0047156695     2     5     5    10
 0.0000000031     2     5     6     6
 -0.0008503279     2     5     6     8
 -0.0000121627     2     5     6     9
 0.0000000032     2     5     7     7
 -0.0000121627     2     5     7     8
 0.0008503279     2     5     7     9
 -0.0019540902     2     5     8     6
 -0.0000279504     2     5     8     7
 0.0000000024     2     5     8     8
 -0.0000279504     2     5     9     6
 0.0019540903     2     5     9     7
 0.0000000024     2     5     9     9
 0.1699930768     2     5    10     1
 0.0000001229     2     5    10     2
 0.0119328933     2     5    10     3
 0.0000000046     2     5    10     4
 0.0000000025     2     5    10    10
 0.0001489952     2     6     1     8
 0.0000021312     2     6     1     9
 -0.0025535289     2     6     3     8
 -0.0000365245     2     6     3     9
 0.0000000003     2     6     4     8
 0.0011546029     2     6     5     8
 0.0000165149     2     6     5     9
 0.0000000003     2     6     6     1
 -0.5997535920     2     6     6     2
 -0.0000000066     2     6     6     3
 -0.0193516484     2     6     6     4
 -0.0000000031     2     6     6     5
 -0.0043351444     2     6     6    10
 -0.0000000001     2     6     7     2
 0.2428229417     2     6     8     1
 0.0000001762     2     6     8     2
 0.0151084515     2     6     8     3
 0.0000000056     2     6     8     4
 0.0019540902     2     6     8     5
 0.0000000034     2     6     8    10
 0.0034732248     2     6     9     1
 0.0000000026     2     6     9     2
 0.0002161041     2     6     9     3
 0.0000000001     2     6     9     4
 0.0000279504     2     6     9     5
 0.0000000001     2     6    10     8
 0.0000021312     2     7     1     8
 -0.0001489952     2     7     1     9
 -0.0000365245     2     7     3     8
 0.0025535289     2     7     3     9
 -0.0000000003     2     7     4     9
 0.0000165149     2     7     5     8
 -0.0011546029     2     7     5     9
 -0.0000000001     2     7     6     2
 0.0000000003     2     7     7     1
 -0.5997535922     2     7     7     2
 -0.0000000066     2     7     7     3
 -0.0193516483     2     7     7     4
 -0.0000000032     2     7     7     5
 -0.0043351444     2     7     7    10
 0.0034732249     2     7     8     1
 0.0000000026     2     7     8     2
 0.0002161042     2     7     8     3
 0.0000000002     2     7     8     4
 0.0000279504     2     7     8     5
 -0.2428229418     2     7     9     1
 -0.0000001762     2     7     9     2
 -0.0151084516     2     7     9     3
 -0.0000000056     2     7     9     4
 -0.0019540903     2     7     9     5
 -0.0000000034     2     7     9    10
 -0.0000000001     2     7    10     9
 -0.0001489952     2     8     1     6
 -0.0000021312     2     8     1     7
 0.0025535289     2     8     3     6
 0.0000365245     2     8     3     7
 -0.0000000003     2     8     4     6
 -0.0011546029     2     8     5     6
 -0.0000165149     2     8     5     7
 0.2426656938     2     8     6     1
 0.0000001762     2     8     6     2
 0.0187093649     2     8     6     3
 0.0000000057     2     8     6     4
 0.0008503279     2     8     6     5
 0.0000000034     2     8     6    10
 0.0034709757     2     8     7     1
 0.0000000026     2     8     7     2
 0.0002676099     2     8     7     3
 0.0000000001     2     8     7     4
 0.0000121627     2     8     7     5
 -0.5813375138     2     8     8     2
 -0.0000000059     2     8     8     3
 -0.0191962021     2     8     8     4
 -0.0000000024     2     8     8     5
 -0.0067079765     2     8     8    10
 -0.0000000001     2     8     9     2
 -0.0000000001     2     8    10     6
 -0.0000021312     2     9     1     6
 0.0001489952     2     9     1     7
 0.0000365245     2     9     3     6
 -0.0025535289     2     9     3     7
 0.0000000003     2     9     4     7
 -0.0000165149     2     9     5     6
 0.0011546029     2     9     5     7
 0.0034709757     2     9     6     1
 0.0000000026     2     9     6     2
 0.0002676099     2     9     6     3
 0.0000000001     2     9     6     4
 0.0000121627     2     9     6     5
 0.0000000001     2     9     6    10
 -0.2426656939     2     9     7     1
 -0.0000001762     2     9     7     2
 -0.0187093650     2     9     7     3
 -0.0000000058     2     9     7     4
 -0.0008503279     2     9     7     5
 -0.0000000033     2     9     7    10
 -0.0000000001     2     9     8     2
 -0.5813375137     2     9     9     2
 -0.0000000059     2     9     9     3
 -0.0191962021     2     9     9     4
 -0.0000000024     2     9     9     5
 -0.0067079765     2     9     9    10
 0.0000000001     2     9    10     7
 -0.0054554444     2    10     1     1
 -0.0000000019     2    10     1     2
 0.0000695724     2    10     1     3
 -0.0002477471     2    10     1     5
 -0.1151013933     2    10     3     1
 -0.0000000836     2    10     3     2
 -0.0076466882     2    10     3     3
 -0.0000000002     2    10     3     4
 0.0025322886     2    10     3     5
 0.0000000002     2    10     4     1
 -0.0696656929     2    10     4     2
 0.0000000021     2    10     4     3
 0.0028111735     2    10     4     4
 0.0000000011     2    10     4     5
 0.1697539182     2    10     5     1
 0.0000001229     2    10     5     2
 0.0153090058     2    10     5     3
 0.0000000061     2    10     5     4
 0.0047156695     2    10     5     5
 0.0043351444     2    10     6     6
 -0.0000000034     2    10     6     8
 -0.0000000001     2    10     6     9
 0.0043351444     2    10     7     7
 0.0000000033     2    10     7     9
 -0.0000000034     2    10     8     6
 0.0067079765     2    10     8     8
 0.0000000034     2    10     9     7
 0.0067079765     2    10     9     9
 0.0000000002     2    10    10     1
 -0.5195496509     2    10    10     2
 -0.0000000043     2    10    10     3
 -0.0143224342     2    10    10     4
 -0.0000000025     2    10    10     5
 0.0000000007     3     1     1     2
 -0.6380923708     3     1     1     3
 0.0000001891     3     1     1     4
 0.0454038159     3     1     1     5
 0.0000000836     3     1     1    10
 -0.0020344896     3     1     2     2
 0.0000000002     3     1     2     3
 -0.2606229281     3     1     2     4
 -0.0000000002     3     1     2     5
 -0.1151013933     3     1     2    10
 -0.0000336275     3     1     4     2
 0.0000000009     3     1     4     3
 0.0028641243     3     1     4     4
 -0.0000000035     3     1     4     5
 -0.0056379191     3     1     4    10
 -0.0094494409     3     1     5     3
 -0.0000000030     3     1     5     4
 0.0217785088     3     1     5     5
 0.0000000042     3     1     5    10
 0.0184081392     3     1     6     6
 0.0000000055     3     1     6     8
 0.0000000001     3     1     6     9
 0.0184081392     3     1     7     7
 0.0000000001     3     1     7     8
 -0.0000000055     3     1     7     9
 0.0000000069     3     1     8     6
 0.0000000001     3     1     8     7
 0.0163745510     3     1     8     8
 0.0000000001     3     1     9     6
 -0.0000000068     3     1     9     7
 0.0163745510     3     1     9     9
 0.0000695724     3     1    10     2
 -0.0000000027     3     1    10     3
 -0.0056676190     3     1    10     4
 0.0000000054     3     1    10     5
 0.0089508159     3     1    10    10
 -0.0000000007     3     2     1     1
 0.0000000002     3     2     1     3
 -0.2605889585     3     2     1     4
 -0.0000000002     3     2     1     5
 -0.1151723628     3     2     1    10
 0.0020344896     3     2     2     1
 -0.6380846751     3     2     2     3
 -0.0000001891     3     2     2     4
 0.0454687324     3     2     2     5
 -0.0000000836     3     2     2    10
 0.0000336275     3     2     4     1
 -0.0026423879     3     2     4     3
 0.0000000011     3     2     4     4
 0.0101675444     3     2     4     5
 -0.0000000022     3     2     4    10
 -0.0000000035     3     2     5     3
 0.0084822735     3     2     5     4
 0.0000000082     3     2     5     5
 -0.0119328933     3     2     5    10
 0.0000000066     3     2     6     6
 -0.0151084515     3     2     6     8
 -0.0002161041     3     2     6     9
 0.0000000066     3     2     7     7
 -0.0002161042     3     2     7     8
 0.0151084516     3     2     7     9
 -0.0187093649     3     2     8     6
 -0.0002676099     3     2     8     7
 0.0000000059     3     2     8     8
 -0.0002676099     3     2     9     6
 0.0187093650     3     2     9     7
 0.0000000059     3     2     9     9
 -0.0000695724     3     2    10     1
 0.0076466882     3     2    10     3
 -0.0000000021     3     2    10     4
 -0.0153090058     3     2    10     5
 0.0000000043     3     2    10    10
 0.6380923708     3     3     1     1
 -0.0000000002     3     3     1     2
 -0.0000000009     3     3     1     4
 0.0094494409     3     3     1     5
 0.0000000027     3     3     1    10
 -0.0000000002     3     3     2     1
 0.6380846751     3     3     2     2
 0.0026423879     3     3     2     4
 0.0000000035     3     3     2     5
 -0.0076466882     3     3     2    10
 -0.0000000009     3     3     4     1
 0.0026423879     3     3     4     2
 0.3384960620     3     3     4     4
 -0.0000000001     3     3     4     5
 0.0184399523     3     3     4    10
 0.0094494409     3     3     5     1
 0.0000000035     3     3     5     2
 -0.0000000001     3     3     5     4
 0.4257940327     3     3     5     5
 0.0000000004     3     3     5    10
 0.4284291830     3     3     6     6
 0.0000000001     3     3     6     7
 0.0000000001     3     3     6     8
 0.0000000001     3     3     7     6
 0.4284291831     3     3     7     7
 -0.0000000001     3     3     7     9
 0.0000000001     3     3     8     6
 0.4300456114     3     3     8     8
 0.0000000001     3     3     8     9
 -0.0000000001     3     3     9     7
 0.0000000001     3     3     9     8
 0.4300456112     3     3     9     9
 0.0000000027     3     3    10     1
 -0.0076466882     3     3    10     2
 0.0184399523     3     3    10     4
 0.0000000004     3     3    10     5
 0.3866951625     3     3    10    10
 -0.0000001891     3     4     1     1
 0.2605889585     3     4     1     2
 0.0000000009     3     4     1     3
 -0.0000000005     3     4     1     5
 -0.0004055445     3     4     1    10
 0.2606229281     3     4     2     1
 0.0000001891     3     4     2     2
 -0.0026423879     3     4     2     3
 0.0017110443     3     4     2     5
 -0.0000000002     3     4     2    10
 -0.0028641243     3     4     4     1
 -0.0000000011     3     4     4     2
 -0.3384960620     3     4     4     3
 0.1041300006     3     4     4     5
 -0.0000000001     3     4     4    10
 0.0000000030     3     4     5     1
 -0.0084822735     3     4     5     2
 0.0000000001     3     4     5     3
 -0.0000000003     3     4     5     5
 -0.0942648586     3     4     5    10
 -0.0000000002     3     4     6     6
 -0.0909639627     3     4     6     8
 -0.0013011057     3     4     6     9
 -0.0000000002     3     4     7     7
 -0.0013011056     3     4     7     8
 0.0909639627     3     4     7     9
 -0.0773106346     3     4     8     6
 -0.0011058148     3     4     8     7
 0.0000000001     3     4     8     9
 -0.0011058149     3     4     9     6