&FCI NORB= 10,NELEC= 14,MS2=0,
 ORBSYM=1,1,1,1,1,1,1,1,1,1
 ISYM=1,
&END
 0.1959511444     1     1     2     2
 -0.0000000003     1     1     2     3
 0.0001483904     1     1     2     4
 0.0000000065     1     1     2     5
 -0.0023260505     1     1     2    10
 -0.0000000003     1     1     3     2
 0.5504897501     1     1     3     3
 -0.0000017660     1     1     3     4
 -0.0077322500     1     1     3     5
 -0.0000001342     1     1     3    10
 0.0001483904     1     1     4     2
 -0.0000017660     1     1     4     3
 0.5568601806     1     1     4     4
 -0.0000002518     1     1     4     5
 0.0259771137     1     1     4    10
 0.0000000065     1     1     5     2
 -0.0077322500     1     1     5     3
 -0.0000002518     1     1     5     4
 0.5487955434     1     1     5     5
 0.0000015423     1     1     5    10
 0.5545296133     1     1     6     6
 0.0000000003     1     1     6     7
 0.0000013083     1     1     6     8
 -0.0000009079     1     1     6     9
 0.0000000003     1     1     7     6
 0.5545296127     1     1     7     7
 -0.0000009080     1     1     7     8
 -0.0000013083     1     1     7     9
 0.0000013083     1     1     8     6
 -0.0000009080     1     1     8     7
 0.5306639328     1     1     8     8
 -0.0000009079     1     1     9     6
 -0.0000013083     1     1     9     7
 0.5306639328     1     1     9     9
 -0.0023260505     1     1    10     2
 -0.0000001342     1     1    10     3
 0.0259771137     1     1    10     4
 0.0000015423     1     1    10     5
 0.5511753618     1     1    10    10
 -0.1959511444     1     2     2     1
 0.0001263101     1     2     2     3
 0.0000000004     1     2     2     4
 -0.0026435862     1     2     2     5
 -0.0000000058     1     2     2    10
 0.0000000003     1     2     3     1
 -0.0000000034     1     2     3     3
 0.3581466354     1     2     3     4
 0.0271267896     1     2     3    10
 -0.0001483904     1     2     4     1
 0.3581589209     1     2     4     3
 0.0000000030     1     2     4     4
 0.0509901179     1     2     4     5
 -0.0000000002     1     2     4    10
 -0.0000000065     1     2     5     1
 0.0509981061     1     2     5     4
 -0.0000000030     1     2     5     5
 -0.3125262482     1     2     5    10
 0.0000000001     1     2     6     6
 -0.2652908686     1     2     6     8
 0.1841265436     1     2     6     9
 0.0000000001     1     2     7     7
 0.1841265431     1     2     7     8
 0.2652908685     1     2     7     9
 -0.2652669697     1     2     8     6
 0.1841099559     1     2     8     7
 0.0000000007     1     2     8     8
 0.1841099565     1     2     9     6
 0.2652669696     1     2     9     7
 0.0000000007     1     2     9     9
 0.0023260505     1     2    10     1
 0.0271174643     1     2    10     3
 -0.0000000002     1     2    10     4
 -0.3124642673     1     2    10     5
 -0.0000000004     1     2    10    10
 0.0000000003     1     3     2     1
 -0.0001263101     1     3     2     2
 -0.0000122216     1     3     2     4
 0.0000090447     1     3     2    10
 -0.5504897501     1     3     3     1
 0.0000000034     1     3     3     2
 0.0000000004     1     3     3     4
 -0.0016007997     1     3     3     5
 -0.0000000040     1     3     3    10
 0.0000017660     1     3     4     1
 -0.3581589209     1     3     4     2
 0.0003320060     1     3     4     4
 -0.0000000063     1     3     4     5
 -0.0023423114     1     3     4    10
 0.0077322500     1     3     5     1
 -0.0000000035     1     3     5     4
 0.0204568623     1     3     5     5
 0.0000000485     1     3     5    10
 0.0212303413     1     3     6     6
 0.0000000393     1     3     6     8
 -0.0000000272     1     3     6     9
 0.0212303413     1     3     7     7
 -0.0000000272     1     3     7     8
 -0.0000000393     1     3     7     9
 0.0000000362     1     3     8     6
 -0.0000000252     1     3     8     7
 0.0176668849     1     3     8     8
 -0.0000000251     1     3     9     6
 -0.0000000362     1     3     9     7
 0.0176668850     1     3     9     9
 0.0000001342     1     3    10     1
 -0.0271174643     1     3    10     2
 -0.0012722084     1     3    10     4
 0.0000000426     1     3    10     5
 0.0185188648     1     3    10    10
 -0.0001483904     1     4     2     1
 -0.0000000004     1     4     2     2
 0.0000122216     1     4     2     3
 -0.0000076034     1     4     2     5
 0.0000017660     1     4     3     1
 -0.3581466354     1     4     3     2
 -0.0000000004     1     4     3     3
 -0.0000000028     1     4     3     5
 -0.0010185949     1     4     3    10
 -0.5568601806     1     4     4     1
 -0.0000000030     1     4     4     2
 -0.0003320060     1     4     4     3
 0.0001474570     1     4     4     5
 0.0000000004     1     4     4    10
 0.0000002518     1     4     5     1
 -0.0509981061     1     4     5     2
 0.0000000035     1     4     5     3
 -0.0000000497     1     4     5     5
 -0.0191544005     1     4     5    10
 -0.0000000525     1     4     6     6
 -0.0157732118     1     4     6     8
 0.0109474818     1     4     6     9
 -0.0000000525     1     4     7     7
 0.0109474818     1     4     7     8
 0.0157732118     1     4     7     9
 -0.0149836404     1     4     8     6
 0.0103994756     1     4     8     7
 -0.0000000451     1     4     8     8
 0.0103994756     1     4     9     6
 0.0149836404     1     4     9     7
 -0.0000000451     1     4     9     9
 -0.0259771137     1     4    10     1
 0.0000000002     1     4    10     2
 0.0012722084     1     4    10     3
 -0.0178538130     1     4    10     5
 -0.0000000484     1     4    10    10
 -0.0000000065     1     5     2     1
 0.0026435862     1     5     2     2
 0.0000076034     1     5     2     4
 -0.0000624717     1     5     2    10
 0.0077322500     1     5     3     1
 0.0016007997     1     5     3     3
 0.0000000028     1     5     3     4
 0.0000000037     1     5     3    10
 0.0000002518     1     5     4     1
 -0.0509901179     1     5     4     2
 0.0000000063     1     5     4     3
 -0.0001474570     1     5     4     4
 -0.0002590297     1     5     4    10
 -0.5487955434     1     5     5     1
 0.0000000030     1     5     5     2
 -0.0204568623     1     5     5     3
 0.0000000497     1     5     5     4
 0.0000000003     1     5     5    10
 0.0021645270     1     5     6     6
 -0.0000000007     1     5     6     8
 0.0000000005     1     5     6     9
 0.0021645270     1     5     7     7
 0.0000000006     1     5     7     8
 0.0000000007     1     5     7     9
 -0.0000000013     1     5     8     6
 0.0000000009     1     5     8     7
 0.0017382440     1     5     8     8
 0.0000000009     1     5     9     6
 0.0000000013     1     5     9     7
 0.0017382440     1     5     9     9
 -0.0000015423     1     5    10     1
 0.3124642673     1     5    10     2
 -0.0000000426     1     5    10     3
 0.0178538130     1     5    10     4
 0.0049907022     1     5    10    10
 -0.0000249234     1     6     2     8
 0.0000172983     1     6     2     9
 0.0000000014     1     6     3     8
 -0.0000000010     1     6     3     9
 -0.0000488344     1     6     4     8
 0.0000338938     1     6     4     9
 -0.0000000002     1     6     5     8
 0.0000000001     1     6     5     9
 -0.5545296133     1     6     6     1
 -0.0000000001     1     6     6     2
 -0.0212303413     1     6     6     3
 0.0000000525     1     6     6     4
 -0.0021645270     1     6     6     5
 0.0000000027     1     6     6    10
 -0.0000000003     1     6     7     1
 -0.0000013083     1     6     8     1
 0.2652669697     1     6     8     2
 -0.0000000362     1     6     8     3
 0.0149836404     1     6     8     4
 0.0000000013     1     6     8     5
 0.0027925852     1     6     8    10
 0.0000009079     1     6     9     1
 -0.1841099565     1     6     9     2
 0.0000000251     1     6     9     3
 -0.0103994756     1     6     9     4
 -0.0000000009     1     6     9     5
 -0.0019382087     1     6     9    10
 0.0000855885     1     6    10     8
 -0.0000594032     1     6    10     9
 0.0000172982     1     7     2     8
 0.0000249234     1     7     2     9
 -0.0000000010     1     7     3     8
 -0.0000000014     1     7     3     9
 0.0000338938     1     7     4     8
 0.0000488344     1     7     4     9
 0.0000000001     1     7     5     8
 0.0000000002     1     7     5     9
 -0.0000000003     1     7     6     1
 -0.5545296127     1     7     7     1
 -0.0000000001     1     7     7     2
 -0.0212303413     1     7     7     3
 0.0000000525     1     7     7     4
 -0.0021645270     1     7     7     5
 0.0000000027     1     7     7    10
 0.0000009080     1     7     8     1
 -0.1841099559     1     7     8     2
 0.0000000252     1     7     8     3
 -0.0103994756     1     7     8     4
 -0.0000000009     1     7     8     5
 -0.0019382086     1     7     8    10
 0.0000013083     1     7     9     1
 -0.2652669696     1     7     9     2
 0.0000000362     1     7     9     3
 -0.0149836404     1     7     9     4
 -0.0000000013     1     7     9     5
 -0.0027925852     1     7     9    10
 -0.0000594032     1     7    10     8
 -0.0000855885     1     7    10     9
 0.0000249234     1     8     2     6
 -0.0000172982     1     8     2     7
 -0.0000000014     1     8     3     6
 0.0000000010     1     8     3     7
 0.0000488344     1     8     4     6
 -0.0000338938     1     8     4     7
 0.0000000002     1     8     5     6
 -0.0000000001     1     8     5     7
 -0.0000013083     1     8     6     1
 0.2652908686     1     8     6     2
 -0.0000000393     1     8     6     3
 0.0157732118     1     8     6     4
 0.0000000007     1     8     6     5
 0.0029121582     1     8     6    10
 0.0000009080     1     8     7     1
 -0.1841265431     1     8     7     2
 0.0000000272     1     8     7     3
 -0.0109474818     1     8     7     4
 -0.0000000006     1     8     7     5
 -0.0020211989     1     8     7    10
 -0.5306639328     1     8     8     1
 -0.0000000007     1     8     8     2
 -0.0176668849     1     8     8     3
 0.0000000451     1     8     8     4
 -0.0017382440     1     8     8     5
 0.0000000032     1     8     8    10
 -0.0000855885     1     8    10     6
 0.0000594032     1     8    10     7
 -0.0000172983     1     9     2     6
 -0.0000249234     1     9     2     7
 0.0000000010     1     9     3     6
 0.0000000014     1     9     3     7
 -0.0000338938     1     9     4     6
 -0.0000488344     1     9     4     7
 -0.0000000001     1     9     5     6
 -0.0000000002     1     9     5     7
 0.0000009079     1     9     6     1
 -0.1841265436     1     9     6     2
 0.0000000272     1     9     6     3
 -0.0109474818     1     9     6     4
 -0.0000000005     1     9     6     5
 -0.0020211989     1     9     6    10
 0.0000013083     1     9     7     1
 -0.2652908685     1     9     7     2
 0.0000000393     1     9     7     3
 -0.0157732118     1     9     7     4
 -0.0000000007     1     9     7     5
 -0.0029121581     1     9     7    10
 -0.5306639328     1     9     9     1
 -0.0000000007     1     9     9     2
 -0.0176668850     1     9     9     3
 0.0000000451     1     9     9     4
 -0.0017382440     1     9     9     5
 0.0000000032     1     9     9    10
 0.0000594032     1     9    10     6
 0.0000855885     1     9    10     7
 0.0023260505     1    10     2     1
 0.0000000058     1    10     2     2
 -0.0000090447     1    10     2     3
 0.0000624717     1    10     2     5
 0.0000001342     1    10     3     1
 -0.0271267896     1    10     3     2
 0.0000000040     1    10     3     3
 0.0010185949     1    10     3     4
 -0.0000000037     1    10     3     5
 -0.0259771137     1    10     4     1
 0.0000000002     1    10     4     2
 0.0023423114     1    10     4     3
 -0.0000000004     1    10     4     4
 0.0002590297     1    10     4     5
 -0.0000015423     1    10     5     1
 0.3125262482     1    10     5     2
 -0.0000000485     1    10     5     3
 0.0191544005     1    10     5     4
 -0.0000000003     1    10     5     5
 -0.0000000027     1    10     6     6
 -0.0029121582     1    10     6     8
 0.0020211989     1    10     6     9
 -0.0000000027     1    10     7     7
 0.0020211989     1    10     7     8
 0.0029121581     1    10     7     9
 -0.0027925852     1    10     8     6
 0.0019382086     1    10     8     7
 -0.0000000032     1    10     8     8
 0.0019382087     1    10     9     6
 0.0027925852     1    10     9     7
 -0.0000000032     1    10     9     9
 -0.5511753618     1    10    10     1
 0.0000000004     1    10    10     2
 -0.0185188648     1    10    10     3
 0.0000000484     1    10    10     4
 -0.0049907022     1    10    10     5
 -0.1959511444     2     1     1     2
 0.0000000003     2     1     1     3
 -0.0001483904     2     1     1     4
 -0.0000000065     2     1     1     5
 0.0023260505     2     1     1    10
 0.0001263101     2     1     3     2
 -0.0000000034     2     1     3     3
 0.3581589209     2     1     3     4
 0.0271174643     2     1     3    10
 0.0000000004     2     1     4     2
 0.3581466354     2     1     4     3
 0.0000000030     2     1     4     4
 0.0509981061     2     1     4     5
 -0.0000000002     2     1     4    10
 -0.0026435862     2     1     5     2
 0.0509901179     2     1     5     4
 -0.0000000030     2     1     5     5
 -0.3124642673     2     1     5    10
 0.0000000001     2     1     6     6
 -0.2652669697     2     1     6     8
 0.1841099565     2     1     6     9
 0.0000000001     2     1     7     7
 0.1841099559     2     1     7     8
 0.2652669696     2     1     7     9
 -0.2652908686     2     1     8     6
 0.1841265431     2     1     8     7
 0.0000000007     2     1     8     8
 0.1841265436     2     1     9     6
 0.2652908685     2     1     9     7
 0.0000000007     2     1     9     9
 -0.0000000058     2     1    10     2
 0.0271267896     2     1    10     3
 -0.0000000002     2     1    10     4
 -0.3125262482     2     1    10     5
 -0.0000000004     2     1    10    10
 0.1959511444     2     2     1     1
 -0.0001263101     2     2     1     3
 -0.0000000004     2     2     1     4
 0.0026435862     2     2     1     5
 0.0000000058     2     2     1    10
 -0.0001263101     2     2     3     1
 0.5504767604     2     2     3     3
 0.0000017657     2     2     3     4
 -0.0077283392     2     2     3     5
 0.0000001333     2     2     3    10
 -0.0000000004     2     2     4     1
 0.0000017657     2     2     4     3
 0.5568719000     2     2     4     4
 0.0000002511     2     2     4     5
 0.0259711825     2     2     4    10
 0.0026435862     2     2     5     1
 -0.0077283392     2     2     5     3
 0.0000002511     2     2     5     4
 0.5488639169     2     2     5     5
 -0.0000015391     2     2     5    10
 0.5545662173     2     2     6     6
 0.0000000003     2     2     6     7
 -0.0000013076     2     2     6     8
 0.0000009076     2     2     6     9
 0.0000000003     2     2     7     6
 0.5545662168     2     2     7     7
 0.0000009075     2     2     7     8
 0.0000013076     2     2     7     9
 -0.0000013076     2     2     8     6
 0.0000009075     2     2     8     7
 0.5306397832     2     2     8     8
 0.0000009076     2     2     9     6
 0.0000013076     2     2     9     7
 0.5306397832     2     2     9     9
 0.0000000058     2     2    10     1
 0.0000001333     2     2    10     3
 0.0259711825     2     2    10     4
 -0.0000015391     2     2    10     5
 0.5511154629     2     2    10    10
 -0.0000000003     2     3     1     1
 0.0001263101     2     3     1     2
 0.0000122216     2     3     1     4
 -0.0000090447     2     3     1    10
 0.0000000034     2     3     3     1
 -0.5504767604     2     3     3     2
 -0.0001512906     2     3     3     4
 -0.0000000039     2     3     3     5
 0.0016169212     2     3     3    10
 -0.3581466354     2     3     4     1
 -0.0000017657     2     3     4     2
 0.0000000008     2     3     4     4
 0.0025265566     2     3     4     5
 -0.0000000058     2     3     4    10
 0.0077283392     2     3     5     2
 0.0013909879     2     3     5     4
 0.0000000500     2     3     5     5
 -0.0196128064     2     3     5    10
 0.0000000523     2     3     6     6
 -0.0158850565     2     3     6     8
 0.0110251082     2     3     6     9
 0.0000000523     2     3     7     7
 0.0110251082     2     3     7     8
 0.0158850565     2     3     7     9
 -0.0146515686     2     3     8     6
 0.0101689993     2     3     8     7
 0.0000000435     2     3     8     8
 0.0101689994     2     3     9     6
 0.0146515685     2     3     9     7
 0.0000000435     2     3     9     9
 -0.0271267896     2     3    10     1
 -0.0000001333     2     3    10     2
 -0.0000000032     2     3    10     4
 -0.0172211258     2     3    10     5
 0.0000000455     2     3    10    10
 0.0001483904     2     4     1     1
 0.0000000004     2     4     1     2
 -0.0000122216     2     4     1     3
 0.0000076034     2     4     1     5
 -0.3581589209     2     4     3     1
 -0.0000017657     2     4     3     2
 0.0001512906     2     4     3     3
 0.0011261541     2     4     3     5
 -0.0000000025     2     4     3    10
 -0.0000000030     2     4     4     1
 -0.5568719000     2     4     4     2
 -0.0000000008     2     4     4     3
 0.0000000003     2     4     4     5
 -0.0001857433     2     4     4    10
 -0.0509901179     2     4     5     1
 -0.0000002511     2     4     5     2
 -0.0013909879     2     4     5     3
 0.0200954990     2     4     5     5
 -0.0000000472     2     4     5    10
 0.0213661379     2     4     6     6
 -0.0000000389     2     4     6     8
 0.0000000270     2     4     6     9
 0.0213661379     2     4     7     7
 0.0000000270     2     4     7     8
 0.0000000389     2     4     7     9
 -0.0000000370     2     4     8     6
 0.0000000257     2     4     8     7
 0.0183264158     2     4     8     8
 0.0000000257     2     4     9     6
 0.0000000370     2     4     9     7
 0.0183264158     2     4     9     9
 0.0000000002     2     4    10     1
 -0.0259711825     2     4    10     2
 0.0000000032     2     4    10     3
 -0.0000000441     2     4    10     5
 0.0196310858     2     4    10    10
 0.0000000065     2     5     1     1
 -0.0026435862     2     5     1     2
 -0.0000076034     2     5     1     4
 0.0000624717     2     5     1    10
 0.0077283392     2     5     3     2
 0.0000000039     2     5     3     3
 -0.0011261541     2     5     3     4
 -0.0014970635     2     5     3    10
 -0.0509981061     2     5     4     1
 -0.0000002511     2     5     4     2
 -0.0025265566     2     5     4     3
 -0.0000000003     2     5     4     4
 -0.0000000006     2     5     4    10
 0.0000000030     2     5     5     1
 -0.5488639169     2     5     5     2
 -0.0000000500     2     5     5     3
 -0.0200954990     2     5     5     4
 -0.0000897929     2     5     5    10
 0.0000000053     2     5     6     6
 0.0003013015     2     5     6     8
 -0.0002091200     2     5     6     9
 0.0000000053     2     5     7     7
 -0.0002091200     2     5     7     8
 -0.0003013015     2     5     7     9
 0.0005312457     2     5     8     6
 -0.0003687138     2     5     8     7
 0.0000000043     2     5     8     8
 -0.0003687139     2     5     9     6
 -0.0005312457     2     5     9     7
 0.0000000043     2     5     9     9
 0.3125262482     2     5    10     1
 0.0000015391     2     5    10     2
 0.0172211258     2     5    10     3
 0.0000000441     2     5    10     4
 0.0000000123     2     5    10    10
 0.0000249234     2     6     1     8
 -0.0000172983     2     6     1     9
 -0.0005576598     2     6     3     8
 0.0003870467     2     6     3     9
 -0.0000000001     2     6     4     8
 0.0000000001     2     6     4     9
 0.0000711847     2     6     5     8
 -0.0000494062     2     6     5     9
 -0.0000000001     2     6     6     1
 -0.5545662173     2     6     6     2
 -0.0000000523     2     6     6     3
 -0.0213661379     2     6     6     4
 -0.0000000053     2     6     6     5
 -0.0010873929     2     6     6    10
 -0.0000000003     2     6     7     2
 0.2652908686     2     6     8     1
 0.0000013076     2     6     8     2
 0.0146515686     2     6     8     3
 0.0000000370     2     6     8     4
 -0.0005312457     2     6     8     5
 0.0000000069     2     6     8    10
 -0.1841265436     2     6     9     1
 -0.0000009076     2     6     9     2
 -0.0101689994     2     6     9     3
 -0.0000000257     2     6     9     4
 0.0003687139     2     6     9     5
 -0.0000000048     2     6     9    10
 0.0000000001     2     6    10     8
 -0.0000000002     2     6    10     9
 -0.0000172982     2     7     1     8
 -0.0000249234     2     7     1     9
 0.0003870467     2     7     3     8
 0.0005576598     2     7     3     9
 0.0000000001     2     7     4     8
 0.0000000001     2     7     4     9
 -0.0000494062     2     7     5     8
 -0.0000711847     2     7     5     9
 -0.0000000003     2     7     6     2
 -0.0000000001     2     7     7     1
 -0.5545662168     2     7     7     2
 -0.0000000523     2     7     7     3
 -0.0213661379     2     7     7     4
 -0.0000000053     2     7     7     5
 -0.0010873929     2     7     7    10
 -0.1841265431     2     7     8     1
 -0.0000009075     2     7     8     2
 -0.0101689993     2     7     8     3
 -0.0000000257     2     7     8     4
 0.0003687138     2     7     8     5
 -0.0000000048     2     7     8    10
 -0.2652908685     2     7     9     1
 -0.0000013076     2     7     9     2
 -0.0146515685     2     7     9     3
 -0.0000000370     2     7     9     4
 0.0005312457     2     7     9     5
 -0.0000000069     2     7     9    10
 -0.0000000002     2     7    10     8
 -0.0000000001     2     7    10     9
 -0.0000249234     2     8     1     6
 0.0000172982     2     8     1     7
 0.0005576598     2     8     3     6
 -0.0003870467     2     8     3     7
 0.0000000001     2     8     4     6
 -0.0000000001     2     8     4     7
 -0.0000711847     2     8     5     6
 0.0000494062     2     8     5     7
 0.2652669697     2     8     6     1
 0.0000013076     2     8     6     2
 0.0158850565     2     8     6     3
 0.0000000389     2     8     6     4
 -0.0003013015     2     8     6     5
 0.0000000072     2     8     6    10
 -0.1841099559     2     8     7     1
 -0.0000009075     2     8     7     2
 -0.0110251082     2     8     7     3
 -0.0000000270     2     8     7     4
 0.0002091200     2     8     7     5
 -0.0000000050     2     8     7    10
 -0.0000000007     2     8     8     1
 -0.5306397832     2     8     8     2
 -0.0000000435     2     8     8     3
 -0.0183264158     2     8     8     4
 -0.0000000043     2     8     8     5
 -0.0012981384     2     8     8    10
 -0.0000000001     2     8    10     6
 0.0000000002     2     8    10     7
 0.0000172983     2     9     1     6
 0.0000249234     2     9     1     7
 -0.0003870467     2     9     3     6
 -0.0005576598     2     9     3     7
 -0.0000000001     2     9     4     6
 -0.0000000001     2     9     4     7
 0.0000494062     2     9     5     6
 0.0000711847     2     9     5     7
 -0.1841099565     2     9     6     1
 -0.0000009076     2     9     6     2
 -0.0110251082     2     9     6     3
 -0.0000000270     2     9     6     4
 0.0002091200     2     9     6     5
 -0.0000000050     2     9     6    10
 -0.2652669696     2     9     7     1
 -0.0000013076     2     9     7     2
 -0.0158850565     2     9     7     3
 -0.0000000389     2     9     7     4
 0.0003013015     2     9     7     5
 -0.0000000072     2     9     7    10
 -0.0000000007     2     9     9     1
 -0.5306397832     2     9     9     2
 -0.0000000435     2     9     9     3
 -0.0183264158     2     9     9     4
 -0.0000000043     2     9     9     5
 -0.0012981384     2     9     9    10
 0.0000000002     2     9    10     6
 0.0000000001     2     9    10     7
 -0.0023260505     2    10     1     1
 -0.0000000058     2    10     1     2
 0.0000090447     2    10     1     3
 -0.0000624717     2    10     1     5
 -0.0271174643     2    10     3     1
 -0.0000001333     2    10     3     2
 -0.0016169212     2    10     3     3
 0.0000000025     2    10     3     4
 0.0014970635     2    10     3     5
 0.0000000002     2    10     4     1
 -0.0259711825     2    10     4     2
 0.0000000058     2    10     4     3
 0.0001857433     2    10     4     4
 0.0000000006     2    10     4     5
 0.3124642673     2    10     5     1
 0.0000015391     2    10     5     2
 0.0196128064     2    10     5     3
 0.0000000472     2    10     5     4
 0.0000897929     2    10     5     5
 0.0010873929     2    10     6     6
 -0.0000000072     2    10     6     8
 0.0000000050     2    10     6     9
 0.0010873929     2    10     7     7
 0.0000000050     2    10     7     8
 0.0000000072     2    10     7     9
 -0.0000000069     2    10     8     6
 0.0000000048     2    10     8     7
 0.0012981384     2    10     8     8
 0.0000000048     2    10     9     6
 0.0000000069     2    10     9     7
 0.0012981384     2    10     9     9
 0.0000000004     2    10    10     1
 -0.5511154629     2    10    10     2
 -0.0000000455     2    10    10     3
 -0.0196310858     2    10    10     4
 -0.0000000123     2    10    10     5
 0.0000000003     3     1     1     2
 -0.5504897501     3     1     1     3
 0.0000017660     3     1     1     4
 0.0077322500     3     1     1     5
 0.0000001342     3     1     1    10
 -0.0001263101     3     1     2     2
 0.0000000034     3     1     2     3
 -0.3581589209     3     1     2     4
 -0.0271174643     3     1     2    10
 -0.0000122216     3     1     4     2
 0.0000000004     3     1     4     3
 0.0003320060     3     1     4     4
 -0.0000000035     3     1     4     5
 -0.0012722084     3     1     4    10
 -0.0016007997     3     1     5     3
 -0.0000000063     3     1     5     4
 0.0204568623     3     1     5     5
 0.0000000426     3     1     5    10
 0.0212303413     3     1     6     6
 0.0000000362     3     1     6     8
 -0.0000000251     3     1     6     9
 0.0212303413     3     1     7     7
 -0.0000000252     3     1     7     8
 -0.0000000362     3     1     7     9
 0.0000000393     3     1     8     6
 -0.0000000272     3     1     8     7
 0.0176668849     3     1     8     8
 -0.0000000272     3     1     9     6
 -0.0000000393     3     1     9     7
 0.0176668850     3     1     9     9
 0.0000090447     3     1    10     2
 -0.0000000040     3     1    10     3
 -0.0023423114     3     1    10     4
 0.0000000485     3     1    10     5
 0.0185188648     3     1    10    10
 -0.0000000003     3     2     1     1
 0.0000000034     3     2     1     3
 -0.3581466354     3     2     1     4
 -0.0271267896     3     2     1    10
 0.0001263101     3     2     2     1
 -0.5504767604     3     2     2     3
 -0.0000017657     3     2     2     4
 0.0077283392     3     2     2     5
 -0.0000001333     3     2     2    10
 0.0000122216     3     2     4     1
 -0.0001512906     3     2     4     3
 0.0000000008     3     2     4     4
 0.0013909879     3     2     4     5
 -0.0000000032     3     2     4    10
 -0.0000000039     3     2     5     3
 0.0025265566     3     2     5     4
 0.0000000500     3     2     5     5
 -0.0172211258     3     2     5    10
 0.0000000523     3     2     6     6
 -0.0146515686     3     2     6     8
 0.0101689994     3     2     6     9
 0.0000000523     3     2     7     7
 0.0101689993     3     2     7     8
 0.0146515685     3     2     7     9
 -0.0158850565     3     2     8     6
 0.0110251082     3     2     8     7
 0.0000000435     3     2     8     8
 0.0110251082     3     2     9     6
 0.0158850565     3     2     9     7
 0.0000000435     3     2     9     9
 -0.0000090447     3     2    10     1
 0.0016169212     3     2    10     3
 -0.0000000058     3     2    10     4
 -0.0196128064     3     2    10     5
 0.0000000455     3     2    10    10
 0.5504897501     3     3     1     1
 -0.0000000034     3     3     1     2
 -0.0000000004     3     3     1     4
 0.0016007997     3     3     1     5
 0.0000000040     3     3     1    10
 -0.0000000034     3     3     2     1
 0.5504767604     3     3     2     2
 0.0001512906     3     3     2     4
 0.0000000039     3     3     2     5
 -0.0016169212     3     3     2    10
 -0.0000000004     3     3     4     1
 0.0001512906     3     3     4     2
 0.1927108589     3     3     4     4
 -0.0000000004     3     3     4     5
 0.0121486371     3     3     4    10
 0.0016007997     3     3     5     1
 0.0000000039     3     3     5     2
 -0.0000000004     3     3     5     4
 0.3564589995     3     3     5     5
 0.0000000022     3     3     5    10
 0.3585204457     3     3     6     6
 0.0000000001     3     3     6     7
 0.0000000014     3     3     6     8
 -0.0000000009     3     3     6     9
 0.0000000001     3     3     7     6
 0.3585204454     3     3     7     7
 -0.0000000009     3     3     7     8
 -0.0000000014     3     3     7     9
 0.0000000014     3     3     8     6
 -0.0000000009     3     3     8     7
 0.3591951539     3     3     8     8
 -0.0000000009     3     3     9     6
 -0.0000000014     3     3     9     7
 0.3591951539     3     3     9     9
 0.0000000040     3     3    10     1
 -0.0016169212     3     3    10     2
 0.0121486371     3     3    10     4
 0.0000000022     3     3    10     5
 0.3712613871     3     3    10    10
 -0.0000017660     3     4     1     1
 0.3581466354     3     4     1     2
 0.0000000004     3     4     1     3
 0.0000000028     3     4     1     5
 0.0010185949     3     4     1    10
 0.3581589209     3     4     2     1
 0.0000017657     3     4     2     2
 -0.0001512906     3     4     2     3