&FCI NORB= 10,NELEC= 14,MS2=0,
 ORBSYM=1,1,1,1,1,1,1,1,1,1
 ISYM=1,
&END
 0.1889491458     1     1     2     2
 0.0001204798     1     1     2     4
 -0.0000000010     1     1     2     5
 -0.0021505583     1     1     2    10
 0.5472483735     1     1     3     3
 -0.0000003047     1     1     3     4
 0.0074159991     1     1     3     5
 -0.0000000202     1     1     3    10
 0.0001204798     1     1     4     2
 -0.0000003047     1     1     4     3
 0.5530185616     1     1     4     4
 0.0000000389     1     1     4     5
 0.0238196603     1     1     4    10
 -0.0000000010     1     1     5     2
 0.0074159991     1     1     5     3
 0.0000000389     1     1     5     4
 0.5461415779     1     1     5     5
 -0.0000002694     1     1     5    10
 0.5518695450     1     1     6     6
 0.0000000001     1     1     6     7
 0.0000002526     1     1     6     8
 0.0000001089     1     1     6     9
 0.0000000001     1     1     7     6
 0.5518695446     1     1     7     7
 0.0000001089     1     1     7     8
 -0.0000002523     1     1     7     9
 0.0000002526     1     1     8     6
 0.0000001089     1     1     8     7
 0.5269528177     1     1     8     8
 0.0000001089     1     1     9     6
 -0.0000002523     1     1     9     7
 0.5269528177     1     1     9     9
 -0.0021505583     1     1    10     2
 -0.0000000202     1     1    10     3
 0.0238196603     1     1    10     4
 -0.0000002694     1     1    10     5
 0.5458676680     1     1    10    10
 -0.1889491458     1     2     2     1
 0.0001100957     1     2     2     3
 0.0024687388     1     2     2     5
 -0.0000000009     1     2     2    10
 -0.0000000005     1     2     3     3
 0.3617468690     1     2     3     4
 -0.0000000001     1     2     3     5
 0.0238405551     1     2     3    10
 -0.0001204798     1     2     4     1
 0.3617593092     1     2     4     3
 0.0000000006     1     2     4     4
 -0.0456454643     1     2     4     5
 -0.0000000002     1     2     4    10
 0.0000000010     1     2     5     1
 -0.0000000001     1     2     5     3
 -0.0456523316     1     2     5     4
 -0.0000000042     1     2     5     5
 0.3179783802     1     2     5    10
 0.0000000002     1     2     6     6
 -0.2998706567     1     2     6     8
 -0.1293012343     1     2     6     9
 0.0000000003     1     2     7     7
 -0.1293012343     1     2     7     8
 0.2998706563     1     2     7     9
 -0.2998468201     1     2     8     6
 -0.1292909562     1     2     8     7
 0.0000000007     1     2     8     8
 -0.1292909562     1     2     9     6
 0.2998468197     1     2     9     7
 0.0000000006     1     2     9     9
 0.0021505583     1     2    10     1
 0.0238320729     1     2    10     3
 -0.0000000002     1     2    10     4
 0.3179228771     1     2    10     5
 -0.0000000007     1     2    10    10
 -0.0001100957     1     3     2     2
 -0.0000123817     1     3     2     4
 0.0000082368     1     3     2    10
 -0.5472483735     1     3     3     1
 0.0000000005     1     3     3     2
 0.0000000001     1     3     3     4
 0.0014248942     1     3     3     5
 -0.0000000006     1     3     3    10
 0.0000003047     1     3     4     1
 -0.3617593092     1     3     4     2
 0.0003062017     1     3     4     4
 0.0000000010     1     3     4     5
 -0.0021459980     1     3     4    10
 -0.0074159991     1     3     5     1
 0.0000000001     1     3     5     2
 0.0000000006     1     3     5     4
 0.0205746687     1     3     5     5
 -0.0000000084     1     3     5    10
 0.0213092214     1     3     6     6
 0.0000000075     1     3     6     8
 0.0000000032     1     3     6     9
 0.0213092214     1     3     7     7
 0.0000000032     1     3     7     8
 -0.0000000075     1     3     7     9
 0.0000000069     1     3     8     6
 0.0000000030     1     3     8     7
 0.0176481341     1     3     8     8
 0.0000000030     1     3     9     6
 -0.0000000069     1     3     9     7
 0.0176481341     1     3     9     9
 0.0000000202     1     3    10     1
 -0.0238320729     1     3    10     2
 -0.0011364665     1     3    10     4
 -0.0000000075     1     3    10     5
 0.0184553366     1     3    10    10
 -0.0001204798     1     4     2     1
 0.0000123817     1     4     2     3
 0.0000065477     1     4     2     5
 0.0000003047     1     4     3     1
 -0.3617468690     1     4     3     2
 -0.0000000001     1     4     3     3
 0.0000000005     1     4     3     5
 -0.0009707121     1     4     3    10
 -0.5530185616     1     4     4     1
 -0.0000000006     1     4     4     2
 -0.0003062017     1     4     4     3
 -0.0000805136     1     4     4     5
 0.0000000001     1     4     4    10
 -0.0000000389     1     4     5     1
 0.0456523316     1     4     5     2
 -0.0000000006     1     4     5     3
 -0.0000000089     1     4     5     5
 0.0192058296     1     4     5    10
 -0.0000000089     1     4     6     6
 -0.0176713376     1     4     6     8
 -0.0076197044     1     4     6     9
 -0.0000000089     1     4     7     7
 -0.0076197044     1     4     7     8
 0.0176713375     1     4     7     9
 -0.0167816014     1     4     8     6
 -0.0072360590     1     4     8     7
 -0.0000000077     1     4     8     8
 -0.0072360590     1     4     9     6
 0.0167816014     1     4     9     7
 -0.0000000077     1     4     9     9
 -0.0238196603     1     4    10     1
 0.0000000002     1     4    10     2
 0.0011364665     1     4    10     3
 0.0179862430     1     4    10     5
 -0.0000000082     1     4    10    10
 0.0000000010     1     5     2     1
 -0.0024687388     1     5     2     2
 -0.0000065477     1     5     2     4
 0.0000559421     1     5     2    10
 -0.0074159991     1     5     3     1
 0.0000000001     1     5     3     2
 -0.0014248942     1     5     3     3
 -0.0000000005     1     5     3     4
 -0.0000000006     1     5     3    10
 -0.0000000389     1     5     4     1
 0.0456454643     1     5     4     2
 -0.0000000010     1     5     4     3
 0.0000805136     1     5     4     4
 0.0002232512     1     5     4    10
 -0.5461415779     1     5     5     1
 0.0000000042     1     5     5     2
 -0.0205746687     1     5     5     3
 0.0000000089     1     5     5     4
 -0.0019305091     1     5     6     6
 0.0000000001     1     5     6     8
 -0.0019305091     1     5     7     7
 -0.0000000001     1     5     7     9
 0.0000000003     1     5     8     6
 0.0000000001     1     5     8     7
 -0.0015463694     1     5     8     8
 0.0000000001     1     5     9     6
 -0.0000000003     1     5     9     7
 -0.0015463694     1     5     9     9
 0.0000002694     1     5    10     1
 -0.3179228771     1     5    10     2
 0.0000000075     1     5    10     3
 -0.0179862430     1     5    10     4
 -0.0045269544     1     5    10    10
 -0.0000249952     1     6     2     8
 -0.0000107777     1     6     2     9
 0.0000000002     1     6     3     8
 0.0000000001     1     6     3     9
 -0.0000792706     1     6     4     8
 -0.0000341807     1     6     4     9
 -0.5518695450     1     6     6     1
 -0.0000000002     1     6     6     2
 -0.0213092214     1     6     6     3
 0.0000000089     1     6     6     4
 0.0019305091     1     6     6     5
 0.0000000004     1     6     6    10
 -0.0000000001     1     6     7     1
 -0.0000002526     1     6     8     1
 0.2998468201     1     6     8     2
 -0.0000000069     1     6     8     3
 0.0167816014     1     6     8     4
 -0.0000000003     1     6     8     5
 0.0028402828     1     6     8    10
 -0.0000001089     1     6     9     1
 0.1292909562     1     6     9     2
 -0.0000000030     1     6     9     3
 0.0072360590     1     6     9     4
 -0.0000000001     1     6     9     5
 0.0012247015     1     6     9    10
 0.0000882005     1     6    10     8
 0.0000380312     1     6    10     9
 -0.0000107777     1     7     2     8
 0.0000249952     1     7     2     9
 0.0000000001     1     7     3     8
 -0.0000000002     1     7     3     9
 -0.0000341807     1     7     4     8
 0.0000792706     1     7     4     9
 -0.0000000001     1     7     6     1
 -0.5518695446     1     7     7     1
 -0.0000000003     1     7     7     2
 -0.0213092214     1     7     7     3
 0.0000000089     1     7     7     4
 0.0019305091     1     7     7     5
 0.0000000004     1     7     7    10
 -0.0000001089     1     7     8     1
 0.1292909562     1     7     8     2
 -0.0000000030     1     7     8     3
 0.0072360590     1     7     8     4
 -0.0000000001     1     7     8     5
 0.0012247015     1     7     8    10
 0.0000002523     1     7     9     1
 -0.2998468197     1     7     9     2
 0.0000000069     1     7     9     3
 -0.0167816014     1     7     9     4
 0.0000000003     1     7     9     5
 -0.0028402828     1     7     9    10
 0.0000380312     1     7    10     8
 -0.0000882005     1     7    10     9
 0.0000249952     1     8     2     6
 0.0000107777     1     8     2     7
 -0.0000000002     1     8     3     6
 -0.0000000001     1     8     3     7
 0.0000792706     1     8     4     6
 0.0000341807     1     8     4     7
 -0.0000002526     1     8     6     1
 0.2998706567     1     8     6     2
 -0.0000000075     1     8     6     3
 0.0176713376     1     8     6     4
 -0.0000000001     1     8     6     5
 0.0029563260     1     8     6    10
 -0.0000001089     1     8     7     1
 0.1293012343     1     8     7     2
 -0.0000000032     1     8     7     3
 0.0076197044     1     8     7     4
 0.0012747382     1     8     7    10
 -0.5269528177     1     8     8     1
 -0.0000000007     1     8     8     2
 -0.0176481341     1     8     8     3
 0.0000000077     1     8     8     4
 0.0015463694     1     8     8     5
 0.0000000005     1     8     8    10
 -0.0000882005     1     8    10     6
 -0.0000380312     1     8    10     7
 0.0000107777     1     9     2     6
 -0.0000249952     1     9     2     7
 -0.0000000001     1     9     3     6
 0.0000000002     1     9     3     7
 0.0000341807     1     9     4     6
 -0.0000792706     1     9     4     7
 -0.0000001089     1     9     6     1
 0.1293012343     1     9     6     2
 -0.0000000032     1     9     6     3
 0.0076197044     1     9     6     4
 0.0012747382     1     9     6    10
 0.0000002523     1     9     7     1
 -0.2998706563     1     9     7     2
 0.0000000075     1     9     7     3
 -0.0176713375     1     9     7     4
 0.0000000001     1     9     7     5
 -0.0029563260     1     9     7    10
 -0.5269528177     1     9     9     1
 -0.0000000006     1     9     9     2
 -0.0176481341     1     9     9     3
 0.0000000077     1     9     9     4
 0.0015463694     1     9     9     5
 0.0000000004     1     9     9    10
 -0.0000380312     1     9    10     6
 0.0000882005     1     9    10     7
 0.0021505583     1    10     2     1
 0.0000000009     1    10     2     2
 -0.0000082368     1    10     2     3
 -0.0000559421     1    10     2     5
 0.0000000202     1    10     3     1
 -0.0238405551     1    10     3     2
 0.0000000006     1    10     3     3
 0.0009707121     1    10     3     4
 0.0000000006     1    10     3     5
 -0.0238196603     1    10     4     1
 0.0000000002     1    10     4     2
 0.0021459980     1    10     4     3
 -0.0000000001     1    10     4     4
 -0.0002232512     1    10     4     5
 0.0000002694     1    10     5     1
 -0.3179783802     1    10     5     2
 0.0000000084     1    10     5     3
 -0.0192058296     1    10     5     4
 -0.0000000004     1    10     6     6
 -0.0029563260     1    10     6     8
 -0.0012747382     1    10     6     9
 -0.0000000004     1    10     7     7
 -0.0012747382     1    10     7     8
 0.0029563260     1    10     7     9
 -0.0028402828     1    10     8     6
 -0.0012247015     1    10     8     7
 -0.0000000005     1    10     8     8
 -0.0012247015     1    10     9     6
 0.0028402828     1    10     9     7
 -0.0000000004     1    10     9     9
 -0.5458676680     1    10    10     1
 0.0000000007     1    10    10     2
 -0.0184553366     1    10    10     3
 0.0000000082     1    10    10     4
 0.0045269544     1    10    10     5
 -0.1889491458     2     1     1     2
 -0.0001204798     2     1     1     4
 0.0000000010     2     1     1     5
 0.0021505583     2     1     1    10
 0.0001100957     2     1     3     2
 -0.0000000005     2     1     3     3
 0.3617593092     2     1     3     4
 -0.0000000001     2     1     3     5
 0.0238320729     2     1     3    10
 0.3617468690     2     1     4     3
 0.0000000006     2     1     4     4
 -0.0456523316     2     1     4     5
 -0.0000000002     2     1     4    10
 0.0024687388     2     1     5     2
 -0.0000000001     2     1     5     3
 -0.0456454643     2     1     5     4
 -0.0000000042     2     1     5     5
 0.3179228771     2     1     5    10
 0.0000000002     2     1     6     6
 -0.2998468201     2     1     6     8
 -0.1292909562     2     1     6     9
 0.0000000003     2     1     7     7
 -0.1292909562     2     1     7     8
 0.2998468197     2     1     7     9
 -0.2998706567     2     1     8     6
 -0.1293012343     2     1     8     7
 0.0000000007     2     1     8     8
 -0.1293012343     2     1     9     6
 0.2998706563     2     1     9     7
 0.0000000006     2     1     9     9
 -0.0000000009     2     1    10     2
 0.0238405551     2     1    10     3
 -0.0000000002     2     1    10     4
 0.3179783802     2     1    10     5
 -0.0000000007     2     1    10    10
 0.1889491458     2     2     1     1
 -0.0001100957     2     2     1     3
 -0.0024687388     2     2     1     5
 0.0000000009     2     2     1    10
 -0.0001100957     2     2     3     1
 0.5472353418     2     2     3     3
 0.0000003048     2     2     3     4
 0.0074122605     2     2     3     5
 0.0000000200     2     2     3    10
 0.0000003048     2     2     4     3
 0.5530305555     2     2     4     4
 -0.0000000379     2     2     4     5
 0.0238137157     2     2     4    10
 -0.0024687388     2     2     5     1
 0.0074122605     2     2     5     3
 -0.0000000379     2     2     5     4
 0.5462032895     2     2     5     5
 0.0000002663     2     2     5    10
 0.5519024174     2     2     6     6
 0.0000000001     2     2     6     7
 -0.0000002527     2     2     6     8
 -0.0000001090     2     2     6     9
 0.0000000001     2     2     7     6
 0.5519024169     2     2     7     7
 -0.0000001090     2     2     7     8
 0.0000002529     2     2     7     9
 -0.0000002527     2     2     8     6
 -0.0000001090     2     2     8     7
 0.5269310171     2     2     8     8
 -0.0000001090     2     2     9     6
 0.0000002529     2     2     9     7
 0.5269310171     2     2     9     9
 0.0000000009     2     2    10     1
 0.0000000200     2     2    10     3
 0.0238137157     2     2    10     4
 0.0000002663     2     2    10     5
 0.5458143671     2     2    10    10
 0.0001100957     2     3     1     2
 0.0000123817     2     3     1     4
 -0.0000082368     2     3     1    10
 0.0000000005     2     3     3     1
 -0.5472353418     2     3     3     2
 -0.0001462924     2     3     3     4
 0.0000000005     2     3     3     5
 0.0014417875     2     3     3    10
 -0.3617468690     2     3     4     1
 -0.0000003048     2     3     4     2
 0.0000000001     2     3     4     4
 -0.0023275433     2     3     4     5
 -0.0000000009     2     3     4    10
 0.0000000001     2     3     5     1
 -0.0074122605     2     3     5     2
 -0.0012071661     2     3     5     4
 0.0000000083     2     3     5     5
 0.0196323214     2     3     5    10
 0.0000000090     2     3     6     6
 -0.0177842456     2     3     6     8
 -0.0076683892     2     3     6     9
 0.0000000090     2     3     7     7
 -0.0076683892     2     3     7     8
 0.0177842456     2     3     7     9
 -0.0164502420     2     3     8     6
 -0.0070931802     2     3     8     7
 0.0000000074     2     3     8     8
 -0.0070931802     2     3     9     6
 0.0164502420     2     3     9     7
 0.0000000074     2     3     9     9
 -0.0238405551     2     3    10     1
 -0.0000000200     2     3    10     2
 -0.0000000005     2     3    10     4
 0.0174014851     2     3    10     5
 0.0000000077     2     3    10    10
 0.0001204798     2     4     1     1
 -0.0000123817     2     4     1     3
 -0.0000065477     2     4     1     5
 -0.3617593092     2     4     3     1
 -0.0000003048     2     4     3     2
 0.0001462924     2     4     3     3
 -0.0011134888     2     4     3     5
 -0.0000000004     2     4     3    10
 -0.0000000006     2     4     4     1
 -0.5530305555     2     4     4     2
 -0.0000000001     2     4     4     3
 -0.0001222544     2     4     4    10
 0.0456454643     2     4     5     1
 0.0000000379     2     4     5     2
 0.0012071661     2     4     5     3
 0.0202379354     2     4     5     5
 0.0000000080     2     4     5    10
 0.0214148131     2     4     6     6
 -0.0000000074     2     4     6     8
 -0.0000000032     2     4     6     9
 0.0214148130     2     4     7     7
 -0.0000000032     2     4     7     8
 0.0000000075     2     4     7     9
 -0.0000000071     2     4     8     6
 -0.0000000031     2     4     8     7
 0.0182257197     2     4     8     8
 -0.0000000031     2     4     9     6
 0.0000000071     2     4     9     7
 0.0182257197     2     4     9     9
 0.0000000002     2     4    10     1
 -0.0238137157     2     4    10     2
 0.0000000005     2     4    10     3
 0.0000000074     2     4    10     5
 0.0194271846     2     4    10    10
 -0.0000000010     2     5     1     1
 0.0024687388     2     5     1     2
 0.0000065477     2     5     1     4
 -0.0000559421     2     5     1    10
 0.0000000001     2     5     3     1
 -0.0074122605     2     5     3     2
 -0.0000000005     2     5     3     3
 0.0011134888     2     5     3     4
 0.0013644028     2     5     3    10
 0.0456523316     2     5     4     1
 0.0000000379     2     5     4     2
 0.0023275433     2     5     4     3
 0.0000000001     2     5     4    10
 0.0000000042     2     5     5     1
 -0.5462032895     2     5     5     2
 -0.0000000083     2     5     5     3
 -0.0202379354     2     5     5     4
 0.0000065704     2     5     5    10
 -0.0000000008     2     5     6     6
 -0.0003757948     2     5     6     8
 -0.0001620390     2     5     6     9
 -0.0000000008     2     5     7     7
 -0.0001620390     2     5     7     8
 0.0003757948     2     5     7     9
 -0.0006621324     2     5     8     6
 -0.0002855049     2     5     8     7
 -0.0000000006     2     5     8     8
 -0.0002855049     2     5     9     6
 0.0006621324     2     5     9     7
 -0.0000000006     2     5     9     9
 -0.3179783802     2     5    10     1
 -0.0000002663     2     5    10     2
 -0.0174014851     2     5    10     3
 -0.0000000074     2     5    10     4
 -0.0000000019     2     5    10    10
 0.0000249952     2     6     1     8
 0.0000107777     2     6     1     9
 -0.0005867633     2     6     3     8
 -0.0002530065     2     6     3     9
 -0.0000485472     2     6     5     8
 -0.0000209330     2     6     5     9
 -0.0000000002     2     6     6     1
 -0.5519024174     2     6     6     2
 -0.0000000090     2     6     6     3
 -0.0214148131     2     6     6     4
 0.0000000008     2     6     6     5
 -0.0009488705     2     6     6    10
 -0.0000000001     2     6     7     2
 0.2998706567     2     6     8     1
 0.0000002527     2     6     8     2
 0.0164502420     2     6     8     3
 0.0000000071     2     6     8     4
 0.0006621324     2     6     8     5
 0.0000000012     2     6     8    10
 0.1293012343     2     6     9     1
 0.0000001090     2     6     9     2
 0.0070931802     2     6     9     3
 0.0000000031     2     6     9     4
 0.0002855049     2     6     9     5
 0.0000000005     2     6     9    10
 0.0000107777     2     7     1     8
 -0.0000249952     2     7     1     9
 -0.0002530065     2     7     3     8
 0.0005867634     2     7     3     9
 -0.0000209330     2     7     5     8
 0.0000485472     2     7     5     9
 -0.0000000001     2     7     6     2
 -0.0000000003     2     7     7     1
 -0.5519024169     2     7     7     2
 -0.0000000090     2     7     7     3
 -0.0214148130     2     7     7     4
 0.0000000008     2     7     7     5
 -0.0009488705     2     7     7    10
 0.1293012343     2     7     8     1
 0.0000001090     2     7     8     2
 0.0070931802     2     7     8     3
 0.0000000031     2     7     8     4
 0.0002855049     2     7     8     5
 0.0000000005     2     7     8    10
 -0.2998706563     2     7     9     1
 -0.0000002529     2     7     9     2
 -0.0164502420     2     7     9     3
 -0.0000000071     2     7     9     4
 -0.0006621324     2     7     9     5
 -0.0000000012     2     7     9    10
 -0.0000249952     2     8     1     6
 -0.0000107777     2     8     1     7
 0.0005867633     2     8     3     6
 0.0002530065     2     8     3     7
 0.0000485472     2     8     5     6
 0.0000209330     2     8     5     7
 0.2998468201     2     8     6     1
 0.0000002527     2     8     6     2
 0.0177842456     2     8     6     3
 0.0000000074     2     8     6     4
 0.0003757948     2     8     6     5
 0.0000000012     2     8     6    10
 0.1292909562     2     8     7     1
 0.0000001090     2     8     7     2
 0.0076683892     2     8     7     3
 0.0000000032     2     8     7     4
 0.0001620390     2     8     7     5
 0.0000000005     2     8     7    10
 -0.0000000007     2     8     8     1
 -0.5269310171     2     8     8     2
 -0.0000000074     2     8     8     3
 -0.0182257197     2     8     8     4
 0.0000000006     2     8     8     5
 -0.0011133070     2     8     8    10
 -0.0000107777     2     9     1     6
 0.0000249952     2     9     1     7
 0.0002530065     2     9     3     6
 -0.0005867634     2     9     3     7
 0.0000209330     2     9     5     6
 -0.0000485472     2     9     5     7
 0.1292909562     2     9     6     1
 0.0000001090     2     9     6     2
 0.0076683892     2     9     6     3
 0.0000000032     2     9     6     4
 0.0001620390     2     9     6     5
 0.0000000005     2     9     6    10
 -0.2998468197     2     9     7     1
 -0.0000002529     2     9     7     2
 -0.0177842456     2     9     7     3
 -0.0000000075     2     9     7     4
 -0.0003757948     2     9     7     5
 -0.0000000012     2     9     7    10
 -0.0000000006     2     9     9     1
 -0.5269310171     2     9     9     2
 -0.0000000074     2     9     9     3
 -0.0182257197     2     9     9     4
 0.0000000006     2     9     9     5
 -0.0011133070     2     9     9    10
 -0.0021505583     2    10     1     1
 -0.0000000009     2    10     1     2
 0.0000082368     2    10     1     3
 0.0000559421     2    10     1     5
 -0.0238320729     2    10     3     1
 -0.0000000200     2    10     3     2
 -0.0014417875     2    10     3     3
 0.0000000004     2    10     3     4
 -0.0013644028     2    10     3     5
 0.0000000002     2    10     4     1
 -0.0238137157     2    10     4     2
 0.0000000009     2    10     4     3
 0.0001222544     2    10     4     4
 -0.0000000001     2    10     4     5
 -0.3179228771     2    10     5     1
 -0.0000002663     2    10     5     2
 -0.0196323214     2    10     5     3
 -0.0000000080     2    10     5     4
 -0.0000065704     2    10     5     5
 0.0009488705     2    10     6     6
 -0.0000000012     2    10     6     8
 -0.0000000005     2    10     6     9
 0.0009488705     2    10     7     7
 -0.0000000005     2    10     7     8
 0.0000000012     2    10     7     9
 -0.0000000012     2    10     8     6
 -0.0000000005     2    10     8     7
 0.0011133070     2    10     8     8
 -0.0000000005     2    10     9     6
 0.0000000012     2    10     9     7
 0.0011133070     2    10     9     9
 0.0000000007     2    10    10     1
 -0.5458143671     2    10    10     2
 -0.0000000077     2    10    10     3
 -0.0194271846     2    10    10     4
 0.0000000019     2    10    10     5
 -0.5472483735     3     1     1     3
 0.0000003047     3     1     1     4
 -0.0074159991     3     1     1     5
 0.0000000202     3     1     1    10
 -0.0001100957     3     1     2     2
 0.0000000005     3     1     2     3
 -0.3617593092     3     1     2     4
 0.0000000001     3     1     2     5
 -0.0238320729     3     1     2    10
 -0.0000123817     3     1     4     2
 0.0000000001     3     1     4     3
 0.0003062017     3     1     4     4
 0.0000000006     3     1     4     5
 -0.0011364665     3     1     4    10
 0.0014248942     3     1     5     3
 0.0000000010     3     1     5     4
 0.0205746687     3     1     5     5
 -0.0000000075     3     1     5    10
 0.0213092214     3     1     6     6
 0.0000000069     3     1     6     8
 0.0000000030     3     1     6     9
 0.0213092214     3     1     7     7
 0.0000000030     3     1     7     8
 -0.0000000069     3     1     7     9
 0.0000000075     3     1     8     6
 0.0000000032     3     1     8     7
 0.0176481341     3     1     8     8
 0.0000000032     3     1     9     6
 -0.0000000075     3     1     9     7
 0.0176481341     3     1     9     9
 0.0000082368     3     1    10     2
 -0.0000000006     3     1    10     3
 -0.0021459980     3     1    10     4
 -0.0000000084     3     1    10     5
 0.0184553366     3     1    10    10
 0.0000000005     3     2     1     3
 -0.3617468690     3     2     1     4
 0.0000000001     3     2     1     5
 -0.0238405551     3     2     1    10
 0.0001100957     3     2     2     1
 -0.5472353418     3     2     2     3
 -0.0000003048     3     2     2     4
 -0.0074122605     3     2     2     5
 -0.0000000200     3     2     2    10
 0.0000123817     3     2     4     1
 -0.0001462924     3     2     4     3
 0.0000000001     3     2     4     4
 -0.0012071661     3     2     4     5
 -0.0000000005     3     2     4    10
 0.0000000005     3     2     5     3
 -0.0023275433     3     2     5     4
 0.0000000083     3     2     5     5
 0.0174014851     3     2     5    10
 0.0000000090     3     2     6     6
 -0.0164502420     3     2     6     8
 -0.0070931802     3     2     6     9
 0.0000000090     3     2     7     7
 -0.0070931802     3     2     7     8
 0.0164502420     3     2     7     9
 -0.0177842456     3     2     8     6
 -0.0076683892     3     2     8     7
 0.0000000074     3     2     8     8
 -0.0076683892     3     2     9     6
 0.0177842456     3     2     9     7
 0.0000000074     3     2     9     9
 -0.0000082368     3     2    10     1
 0.0014417875     3     2    10     3
 -0.0000000009     3     2    10     4
 0.0196323214     3     2    10     5
 0.0000000077     3     2    10    10
 0.5472483735     3     3     1     1
 -0.0000000005     3     3     1     2
 -0.0000000001     3     3     1     4
 -0.0014248942     3     3     1     5
 0.0000000006     3     3     1    10
 -0.0000000005     3     3     2     1
 0.5472353418     3     3     2     2
 0.0001462924     3     3     2     4
 -0.0000000005     3     3     2     5
 -0.0014417875     3     3     2    10
 -0.0000000001     3     3     4     1
 0.0001462924     3     3     4     2
 0.1857485828     3     3     4     4
 0.0000000003     3     3     4     5
 0.0118409604     3     3     4    10
 -0.0014248942     3     3     5     1
 -0.0000000005     3     3     5     2
 0.0000000003     3     3     5     4
 0.3536571069     3     3     5     5
 -0.0000000009     3     3     5    10
 0.3556610967     3     3     6     6
 0.0000000001     3     3     6     7
 0.0000000001     3     3     6     8
 0.0000000001     3     3     7     6
 0.3556610966     3     3     7     7
 0.0000000001     3     3     8     6
 0.3555317766     3     3     8     8
 0.3555317766     3     3     9     9
 0.0000000006     3     3    10     1
 -0.0014417875     3     3    10     2
 0.0118409604     3     3    10     4
 -0.0000000009     3     3    10     5
 0.3668015704     3     3    10    10
 -0.0000003047     3     4     1     1
 0.3617468690     3     4     1     2
 0.0000000001     3     4     1     3
 -0.0000000005     3     4     1     5
 0.0009707121     3     4     1    10
 0.3617593092     3     4     2     1
 0.0000003048     3     4     2     2
 -0.0001462924     3     4     2     3
 0.0011134888     3     4     2     5
 0.0000000004     3     4     2    10
 -0.0003062017     3     4     4     1
 -0.0000000001     3     4     4     2
 -0.1857485828     3     4     4     3
 -0.0394722632     3     4     4     5
 -0.0000000001     3     4     4    10
 -0.0000000010     3     4     5     1
 0.0023275433     3     4     5     2
 -0.0000000003     3     4     5     3
 -0.0000000015     3     4     5     5
 0.1580905871     3     4     5    10
 -0.0000000001     3     4     6     6
 -0.0000000001     3     4     6     7
 -0.1471981187     3     4     6     8
 -0.0634703597     3     4     6     9
 -0.0000000001     3     4     7     6
 -0.0000000001     3     4     7     7
 -0.0634703597     3     4     7     8
 0.1471981185     3     4     7     9
 -0.1443704181     3     4     8     6
 -0.0622510835     3     4     8     7
 0.0000000003     3     4     8     8
 -0.0622510834     3     4     9     6
 0.1443704180     3     4     9     7
 0.0000000003     3     4     9     9
 0.0021459980     3     4    10     1
 0.0000000009     3     4    10     2
 -0.0118409604     3     4    10     3
 0.1499916146     3     4    10     5
 -0.0000000004     3     4    10    10
 0.0074159991     3     5     1     1
 -0.0000000001     3     5     1     2
 0.0014248942     3     5     1     3
 0.0000000005     3     5     1     4
 0.0000000006     3     5     1    10
 -0.0000000001     3     5     2     1
 0.0074122605     3     5     2     2
 0.0000000005     3     5     2     3
 -0.0011134888     3     5     2     4
 -0.0013644028     3     5     2    10
 -0.0000000006     3     5     4     1