&FCI NORB= 10,NELEC= 14,MS2=0,
 ORBSYM=1,1,1,1,1,1,1,1,1,1
 ISYM=1,
&END
 0.2519746790     1     1     2     2
 0.0000000375     1     1     2     3
 -0.0005599928     1     1     2     4
 -0.0000003586     1     1     2     5
 0.0039925102     1     1     2    10
 0.0000000375     1     1     3     2
 0.5791988961     1     1     3     3
 -0.0000543946     1     1     3     4
 -0.0154227891     1     1     3     5
 -0.0000106211     1     1     3    10
 -0.0005599928     1     1     4     2
 -0.0000543946     1     1     4     3
 0.5846694566     1     1     4     4
 -0.0000173465     1     1     4     5
 0.0432579327     1     1     4    10
 -0.0000003586     1     1     5     2
 -0.0154227891     1     1     5     3
 -0.0000173465     1     1     5     4
 0.5781384867     1     1     5     5
 0.0000451692     1     1     5    10
 0.5707498049     1     1     6     6
 0.0000486217     1     1     6     8
 -0.0000006769     1     1     6     9
 0.5707498052     1     1     7     7
 -0.0000006769     1     1     7     8
 -0.0000486224     1     1     7     9
 0.0000486217     1     1     8     6
 -0.0000006769     1     1     8     7
 0.5569473045     1     1     8     8
 -0.0000006769     1     1     9     6
 -0.0000486224     1     1     9     7
 0.5569473045     1     1     9     9
 0.0039925102     1     1    10     2
 -0.0000106211     1     1    10     3
 0.0432579327     1     1    10     4
 0.0000451692     1     1    10     5
 0.5859439065     1     1    10    10
 -0.2519746790     1     2     2     1
 -0.0004477903     1     2     2     3
 -0.0000000469     1     2     2     4
 0.0042910475     1     2     2     5
 0.0000003337     1     2     2    10
 -0.0000000375     1     2     3     1
 -0.0000000650     1     2     3     3
 0.3253434457     1     2     3     4
 -0.0000000066     1     2     3     5
 0.0635158185     1     2     3    10
 0.0005599928     1     2     4     1
 0.3253559205     1     2     4     3
 0.0000000618     1     2     4     4
 0.1037379382     1     2     4     5
 0.0000000064     1     2     4    10
 0.0000003586     1     2     5     1
 -0.0000000066     1     2     5     3
 0.1037631570     1     2     5     4
 -0.0000000241     1     2     5     5
 -0.2702336394     1     2     5    10
 -0.0000000236     1     2     6     6
 -0.2908596524     1     2     6     8
 0.0040493047     1     2     6     9
 -0.0000000237     1     2     7     7
 0.0040493047     1     2     7     8
 0.2908596527     1     2     7     9
 -0.2907938794     1     2     8     6
 0.0040483890     1     2     8     7
 0.0000000167     1     2     8     8
 0.0040483890     1     2     9     6
 0.2907938796     1     2     9     7
 0.0000000169     1     2     9     9
 -0.0039925102     1     2    10     1
 0.0634953018     1     2    10     3
 0.0000000064     1     2    10     4
 -0.2701007661     1     2    10     5
 0.0000000178     1     2    10    10
 -0.0000000375     1     3     2     1
 0.0004477903     1     3     2     2
 -0.0000119801     1     3     2     4
 0.0000199436     1     3     2    10
 -0.5791988961     1     3     3     1
 0.0000000650     1     3     3     2
 -0.0000000354     1     3     3     4
 0.0038377696     1     3     3     5
 0.0000003264     1     3     3    10
 0.0000543946     1     3     4     1
 -0.3253559205     1     3     4     2
 -0.0007981426     1     3     4     4
 0.0000003795     1     3     4     5
 0.0042561179     1     3     4    10
 0.0154227891     1     3     5     1
 0.0000000066     1     3     5     2
 0.0000003244     1     3     5     4
 -0.0202105773     1     3     5     5
 -0.0000016358     1     3     5    10
 -0.0200285332     1     3     6     6
 -0.0000015777     1     3     6     8
 0.0000000220     1     3     6     9
 -0.0200285333     1     3     7     7
 0.0000000220     1     3     7     8
 0.0000015778     1     3     7     9
 -0.0000014004     1     3     8     6
 0.0000000195     1     3     8     7
 -0.0175719833     1     3     8     8
 0.0000000195     1     3     9     6
 0.0000014004     1     3     9     7
 -0.0175719833     1     3     9     9
 0.0000106211     1     3    10     1
 -0.0634953018     1     3    10     2
 0.0030239936     1     3    10     4
 -0.0000013251     1     3    10     5
 -0.0179254442     1     3    10    10
 0.0005599928     1     4     2     1
 0.0000000469     1     4     2     2
 0.0000119801     1     4     2     3
 -0.0000242231     1     4     2     5
 0.0000000001     1     4     2    10
 0.0000543946     1     4     3     1
 -0.3253434457     1     4     3     2
 0.0000000354     1     4     3     3
 0.0000000525     1     4     3     5
 0.0010003972     1     4     3    10
 -0.5846694566     1     4     4     1
 -0.0000000618     1     4     4     2
 0.0007981426     1     4     4     3
 -0.0009982950     1     4     4     5
 -0.0000000935     1     4     4    10
 0.0000173465     1     4     5     1
 -0.1037631570     1     4     5     2
 -0.0000003244     1     4     5     3
 0.0000016322     1     4     5     5
 0.0189679225     1     4     5    10
 0.0000017057     1     4     6     6
 0.0182863600     1     4     6     8
 -0.0002545799     1     4     6     9
 0.0000017057     1     4     7     7
 -0.0002545799     1     4     7     8
 -0.0182863599     1     4     7     9
 0.0174416240     1     4     8     6
 -0.0002428197     1     4     8     7
 0.0000015919     1     4     8     8
 -0.0002428196     1     4     9     6
 -0.0174416240     1     4     9     7
 0.0000015919     1     4     9     9
 -0.0432579327     1     4    10     1
 -0.0000000064     1     4    10     2
 -0.0030239936     1     4    10     3
 0.0166379326     1     4    10     5
 0.0000017323     1     4    10    10
 0.0000003586     1     5     2     1
 -0.0042910475     1     5     2     2
 0.0000242231     1     5     2     4
 -0.0001350996     1     5     2    10
 0.0154227891     1     5     3     1
 0.0000000066     1     5     3     2
 -0.0038377696     1     5     3     3
 -0.0000000525     1     5     3     4
 -0.0000002220     1     5     3    10
 0.0000173465     1     5     4     1
 -0.1037379382     1     5     4     2
 -0.0000003795     1     5     4     3
 0.0009982950     1     5     4     4
 0.0010022609     1     5     4    10
 -0.5781384867     1     5     5     1
 0.0000000241     1     5     5     2
 0.0202105773     1     5     5     3
 -0.0000016322     1     5     5     4
 -0.0000001134     1     5     5    10
 -0.0045014937     1     5     6     6
 -0.0000000147     1     5     6     8
 0.0000000002     1     5     6     9
 -0.0045014938     1     5     7     7
 0.0000000002     1     5     7     8
 0.0000000147     1     5     7     9
 -0.0000000431     1     5     8     6
 0.0000000006     1     5     8     7
 -0.0037517508     1     5     8     8
 0.0000000006     1     5     9     6
 0.0000000431     1     5     9     7
 -0.0037517507     1     5     9     9
 -0.0000451692     1     5    10     1
 0.2701007661     1     5    10     2
 0.0000013251     1     5    10     3
 -0.0166379326     1     5    10     4
 -0.0093998143     1     5    10    10
 -0.0000652790     1     6     2     8
 0.0000009088     1     6     2     9
 -0.0000001011     1     6     3     8
 0.0000000014     1     6     3     9
 -0.0002350455     1     6     4     8
 0.0000032723     1     6     4     9
 0.0000000481     1     6     5     8
 -0.0000000007     1     6     5     9
 -0.5707498049     1     6     6     1
 0.0000000236     1     6     6     2
 0.0200285332     1     6     6     3
 -0.0000017057     1     6     6     4
 0.0045014937     1     6     6     5
 -0.0000001875     1     6     6    10
 -0.0000486217     1     6     8     1
 0.2907938794     1     6     8     2
 0.0000014004     1     6     8     3
 -0.0174416240     1     6     8     4
 0.0000000431     1     6     8     5
 -0.0061493584     1     6     8    10
 0.0000006769     1     6     9     1
 -0.0040483890     1     6     9     2
 -0.0000000195     1     6     9     3
 0.0002428196     1     6     9     4
 -0.0000000006     1     6     9     5
 0.0000856105     1     6     9    10
 -0.0001295805     1     6    10     8
 0.0000018040     1     6    10     9
 0.0000009088     1     7     2     8
 0.0000652791     1     7     2     9
 0.0000000014     1     7     3     8
 0.0000001012     1     7     3     9
 0.0000032723     1     7     4     8
 0.0002350455     1     7     4     9
 -0.0000000007     1     7     5     8
 -0.0000000482     1     7     5     9
 -0.5707498052     1     7     7     1
 0.0000000237     1     7     7     2
 0.0200285333     1     7     7     3
 -0.0000017057     1     7     7     4
 0.0045014938     1     7     7     5
 -0.0000001876     1     7     7    10
 0.0000006769     1     7     8     1
 -0.0040483890     1     7     8     2
 -0.0000000195     1     7     8     3
 0.0002428197     1     7     8     4
 -0.0000000006     1     7     8     5
 0.0000856105     1     7     8    10
 0.0000486224     1     7     9     1
 -0.2907938796     1     7     9     2
 -0.0000014004     1     7     9     3
 0.0174416240     1     7     9     4
 -0.0000000431     1     7     9     5
 0.0061493586     1     7     9    10
 0.0000018040     1     7    10     8
 0.0001295805     1     7    10     9
 0.0000652790     1     8     2     6
 -0.0000009088     1     8     2     7
 0.0000001011     1     8     3     6
 -0.0000000014     1     8     3     7
 0.0002350455     1     8     4     6
 -0.0000032723     1     8     4     7
 -0.0000000481     1     8     5     6
 0.0000000007     1     8     5     7
 -0.0000486217     1     8     6     1
 0.2908596524     1     8     6     2
 0.0000015777     1     8     6     3
 -0.0182863600     1     8     6     4
 0.0000000147     1     8     6     5
 -0.0063400444     1     8     6    10
 0.0000006769     1     8     7     1
 -0.0040493047     1     8     7     2
 -0.0000000220     1     8     7     3
 0.0002545799     1     8     7     4
 -0.0000000002     1     8     7     5
 0.0000882651     1     8     7    10
 -0.5569473045     1     8     8     1
 -0.0000000167     1     8     8     2
 0.0175719833     1     8     8     3
 -0.0000015919     1     8     8     4
 0.0037517508     1     8     8     5
 -0.0000002733     1     8     8    10
 0.0001295805     1     8    10     6
 -0.0000018040     1     8    10     7
 -0.0000009088     1     9     2     6
 -0.0000652791     1     9     2     7
 -0.0000000014     1     9     3     6
 -0.0000001012     1     9     3     7
 -0.0000032723     1     9     4     6
 -0.0002350455     1     9     4     7
 0.0000000007     1     9     5     6
 0.0000000482     1     9     5     7
 0.0000006769     1     9     6     1
 -0.0040493047     1     9     6     2
 -0.0000000220     1     9     6     3
 0.0002545799     1     9     6     4
 -0.0000000002     1     9     6     5
 0.0000882651     1     9     6    10
 0.0000486224     1     9     7     1
 -0.2908596527     1     9     7     2
 -0.0000015778     1     9     7     3
 0.0182863599     1     9     7     4
 -0.0000000147     1     9     7     5
 0.0063400446     1     9     7    10
 -0.5569473045     1     9     9     1
 -0.0000000169     1     9     9     2
 0.0175719833     1     9     9     3
 -0.0000015919     1     9     9     4
 0.0037517507     1     9     9     5
 -0.0000002733     1     9     9    10
 -0.0000018040     1     9    10     6
 -0.0001295805     1     9    10     7
 -0.0039925102     1    10     2     1
 -0.0000003337     1    10     2     2
 -0.0000199436     1    10     2     3
 -0.0000000001     1    10     2     4
 0.0001350996     1    10     2     5
 0.0000106211     1    10     3     1
 -0.0635158185     1    10     3     2
 -0.0000003264     1    10     3     3
 -0.0010003972     1    10     3     4
 0.0000002220     1    10     3     5
 -0.0432579327     1    10     4     1
 -0.0000000064     1    10     4     2
 -0.0042561179     1    10     4     3
 0.0000000935     1    10     4     4
 -0.0010022609     1    10     4     5
 -0.0000451692     1    10     5     1
 0.2702336394     1    10     5     2
 0.0000016358     1    10     5     3
 -0.0189679225     1    10     5     4
 0.0000001134     1    10     5     5
 0.0000001875     1    10     6     6
 0.0063400444     1    10     6     8
 -0.0000882651     1    10     6     9
 0.0000001876     1    10     7     7
 -0.0000882651     1    10     7     8
 -0.0063400446     1    10     7     9
 0.0061493584     1    10     8     6
 -0.0000856105     1    10     8     7
 0.0000002733     1    10     8     8
 -0.0000856105     1    10     9     6
 -0.0061493586     1    10     9     7
 0.0000002733     1    10     9     9
 -0.5859439065     1    10    10     1
 -0.0000000178     1    10    10     2
 0.0179254442     1    10    10     3
 -0.0000017323     1    10    10     4
 0.0093998143     1    10    10     5
 -0.2519746790     2     1     1     2
 -0.0000000375     2     1     1     3
 0.0005599928     2     1     1     4
 0.0000003586     2     1     1     5
 -0.0039925102     2     1     1    10
 -0.0004477903     2     1     3     2
 -0.0000000650     2     1     3     3
 0.3253559205     2     1     3     4
 -0.0000000066     2     1     3     5
 0.0634953018     2     1     3    10
 -0.0000000469     2     1     4     2
 0.3253434457     2     1     4     3
 0.0000000618     2     1     4     4
 0.1037631570     2     1     4     5
 0.0000000064     2     1     4    10
 0.0042910475     2     1     5     2
 -0.0000000066     2     1     5     3
 0.1037379382     2     1     5     4
 -0.0000000241     2     1     5     5
 -0.2701007661     2     1     5    10
 -0.0000000236     2     1     6     6
 -0.2907938794     2     1     6     8
 0.0040483890     2     1     6     9
 -0.0000000237     2     1     7     7
 0.0040483890     2     1     7     8
 0.2907938796     2     1     7     9
 -0.2908596524     2     1     8     6
 0.0040493047     2     1     8     7
 0.0000000167     2     1     8     8
 0.0040493047     2     1     9     6
 0.2908596527     2     1     9     7
 0.0000000169     2     1     9     9
 0.0000003337     2     1    10     2
 0.0635158185     2     1    10     3
 0.0000000064     2     1    10     4
 -0.2702336394     2     1    10     5
 0.0000000178     2     1    10    10
 0.2519746790     2     2     1     1
 0.0004477903     2     2     1     3
 0.0000000469     2     2     1     4
 -0.0042910475     2     2     1     5
 -0.0000003337     2     2     1    10
 0.0004477903     2     2     3     1
 0.5791852805     2     2     3     3
 0.0000543911     2     2     3     4
 -0.0154229307     2     2     3     5
 0.0000106129     2     2     3    10
 0.0000000469     2     2     4     1
 0.0000543911     2     2     4     3
 0.5846768134     2     2     4     4
 0.0000173440     2     2     4     5
 0.0432614153     2     2     4    10
 -0.0042910475     2     2     5     1
 -0.0154229307     2     2     5     3
 0.0000173440     2     2     5     4
 0.5782823290     2     2     5     5
 -0.0000451653     2     2     5    10
 0.5708250815     2     2     6     6
 -0.0000486208     2     2     6     8
 0.0000006769     2     2     6     9
 0.5708250817     2     2     7     7
 0.0000006768     2     2     7     8
 0.0000486201     2     2     7     9
 -0.0000486208     2     2     8     6
 0.0000006768     2     2     8     7
 0.5568973446     2     2     8     8
 0.0000006769     2     2     9     6
 0.0000486201     2     2     9     7
 0.5568973447     2     2     9     9
 -0.0000003337     2     2    10     1
 0.0000106129     2     2    10     3
 0.0432614153     2     2    10     4
 -0.0000451653     2     2    10     5
 0.5858131295     2     2    10    10
 0.0000000375     2     3     1     1
 -0.0004477903     2     3     1     2
 0.0000119801     2     3     1     4
 -0.0000199436     2     3     1    10
 0.0000000650     2     3     3     1
 -0.5791852805     2     3     3     2
 0.0004220563     2     3     3     4
 0.0000003210     2     3     3     5
 -0.0039117121     2     3     3    10
 -0.3253434457     2     3     4     1
 -0.0000543911     2     3     4     2
 -0.0000000666     2     3     4     4
 -0.0045304576     2     3     4     5
 0.0000003551     2     3     4    10
 0.0000000066     2     3     5     1
 0.0154229307     2     3     5     2
 -0.0038782327     2     3     5     4
 -0.0000016872     2     3     5     5
 0.0195520384     2     3     5    10
 -0.0000016711     2     3     6     6
 0.0188507255     2     3     6     8
 -0.0002624370     2     3     6     9
 -0.0000016710     2     3     7     7
 -0.0002624370     2     3     7     8
 -0.0188507255     2     3     7     9
 0.0167306026     2     3     8     6
 -0.0002329209     2     3     8     7
 -0.0000014676     2     3     8     8
 -0.0002329209     2     3     9     6
 -0.0167306026     2     3     9     7
 -0.0000014676     2     3     9     9
 -0.0635158185     2     3    10     1
 -0.0000106129     2     3    10     2
 0.0000002529     2     3    10     4
 0.0158369127     2     3    10     5
 -0.0000014974     2     3    10    10
 -0.0005599928     2     4     1     1
 -0.0000000469     2     4     1     2
 -0.0000119801     2     4     1     3
 0.0000242231     2     4     1     5
 -0.0000000001     2     4     1    10
 -0.3253559205     2     4     3     1
 -0.0000543911     2     4     3     2
 -0.0004220563     2     4     3     3
 -0.0006208984     2     4     3     5
 0.0000000829     2     4     3    10
 -0.0000000618     2     4     4     1
 -0.5846768134     2     4     4     2
 0.0000000666     2     4     4     3
 -0.0000000840     2     4     4     5
 0.0011273634     2     4     4    10
 -0.1037379382     2     4     5     1
 -0.0000173440     2     4     5     2
 0.0038782327     2     4     5     3
 -0.0195447508     2     4     5     5
 0.0000015879     2     4     5    10
 -0.0204144263     2     4     6     6
 0.0000015303     2     4     6     8
 -0.0000000213     2     4     6     9
 -0.0204144263     2     4     7     7
 -0.0000000213     2     4     7     8
 -0.0000015303     2     4     7     9
 0.0000014595     2     4     8     6
 -0.0000000203     2     4     8     7
 -0.0190723033     2     4     8     8
 -0.0000000203     2     4     9     6
 -0.0000014595     2     4     9     7
 -0.0190723033     2     4     9     9
 -0.0000000064     2     4    10     1
 -0.0432614153     2     4    10     2
 -0.0000002529     2     4    10     3
 0.0000013926     2     4    10     5
 -0.0207571727     2     4    10    10
 -0.0000003586     2     5     1     1
 0.0042910475     2     5     1     2
 -0.0000242231     2     5     1     4
 0.0001350996     2     5     1    10
 0.0000000066     2     5     3     1
 0.0154229307     2     5     3     2
 -0.0000003210     2     5     3     3
 0.0006208984     2     5     3     4
 0.0026554396     2     5     3    10
 -0.1037631570     2     5     4     1
 -0.0000173440     2     5     4     2
 0.0045304576     2     5     4     3
 0.0000000840     2     5     4     4
 0.0000000841     2     5     4    10
 0.0000000241     2     5     5     1
 -0.5782823290     2     5     5     2
 0.0000016872     2     5     5     3
 0.0195447508     2     5     5     4
 0.0013602350     2     5     5    10
 -0.0000003763     2     5     6     6
 0.0001796180     2     5     6     8
 -0.0000025006     2     5     6     9
 -0.0000003763     2     5     7     7
 -0.0000025006     2     5     7     8
 -0.0001796179     2     5     7     9
 0.0005190325     2     5     8     6
 -0.0000072259     2     5     8     7
 -0.0000003137     2     5     8     8
 -0.0000072259     2     5     9     6
 -0.0005190323     2     5     9     7
 -0.0000003137     2     5     9     9
 0.2702336394     2     5    10     1
 0.0000451653     2     5    10     2
 -0.0158369127     2     5    10     3
 -0.0000013926     2     5    10     4
 -0.0000007862     2     5    10    10
 0.0000652790     2     6     1     8
 -0.0000009088     2     6     1     9
 0.0012097958     2     6     3     8
 -0.0000168426     2     6     3     9
 -0.0000000196     2     6     4     8
 0.0000000002     2     6     4     9
 -0.0005761170     2     6     5     8
 0.0000080206     2     6     5     9
 0.0000000236     2     6     6     1
 -0.5708250815     2     6     6     2
 0.0000016711     2     6     6     3
 0.0204144263     2     6     6     4
 0.0000003763     2     6     6     5
 0.0022395384     2     6     6    10
 0.2908596524     2     6     8     1
 0.0000486208     2     6     8     2
 -0.0167306026     2     6     8     3
 -0.0000014595     2     6     8     4
 -0.0005190325     2     6     8     5
 -0.0000005139     2     6     8    10
 -0.0040493047     2     6     9     1
 -0.0000006769     2     6     9     2
 0.0002329209     2     6     9     3
 0.0000000203     2     6     9     4
 0.0000072259     2     6     9     5
 0.0000000072     2     6     9    10
 -0.0000000109     2     6    10     8
 0.0000000001     2     6    10     9
 -0.0000009088     2     7     1     8
 -0.0000652791     2     7     1     9
 -0.0000168426     2     7     3     8
 -0.0012097959     2     7     3     9
 0.0000000003     2     7     4     8
 0.0000000195     2     7     4     9
 0.0000080206     2     7     5     8
 0.0005761169     2     7     5     9
 0.0000000237     2     7     7     1
 -0.5708250817     2     7     7     2
 0.0000016710     2     7     7     3
 0.0204144263     2     7     7     4
 0.0000003763     2     7     7     5
 0.0022395384     2     7     7    10
 -0.0040493047     2     7     8     1
 -0.0000006768     2     7     8     2
 0.0002329209     2     7     8     3
 0.0000000203     2     7     8     4
 0.0000072259     2     7     8     5
 0.0000000072     2     7     8    10
 -0.2908596527     2     7     9     1
 -0.0000486201     2     7     9     2
 0.0167306026     2     7     9     3
 0.0000014595     2     7     9     4
 0.0005190323     2     7     9     5
 0.0000005138     2     7     9    10
 0.0000000001     2     7    10     8
 0.0000000108     2     7    10     9
 -0.0000652790     2     8     1     6
 0.0000009088     2     8     1     7
 -0.0012097958     2     8     3     6
 0.0000168426     2     8     3     7
 0.0000000196     2     8     4     6
 -0.0000000003     2     8     4     7
 0.0005761170     2     8     5     6
 -0.0000080206     2     8     5     7
 0.2907938794     2     8     6     1
 0.0000486208     2     8     6     2
 -0.0188507255     2     8     6     3
 -0.0000015303     2     8     6     4
 -0.0001796180     2     8     6     5
 -0.0000005298     2     8     6    10
 -0.0040483890     2     8     7     1
 -0.0000006768     2     8     7     2
 0.0002624370     2     8     7     3
 0.0000000213     2     8     7     4
 0.0000025006     2     8     7     5
 0.0000000074     2     8     7    10
 -0.0000000167     2     8     8     1
 -0.5568973446     2     8     8     2
 0.0000014676     2     8     8     3
 0.0190723033     2     8     8     4
 0.0000003137     2     8     8     5
 0.0032720862     2     8     8    10
 0.0000000109     2     8    10     6
 -0.0000000001     2     8    10     7
 0.0000009088     2     9     1     6
 0.0000652791     2     9     1     7
 0.0000168426     2     9     3     6
 0.0012097959     2     9     3     7
 -0.0000000002     2     9     4     6
 -0.0000000195     2     9     4     7
 -0.0000080206     2     9     5     6
 -0.0005761169     2     9     5     7
 -0.0040483890     2     9     6     1
 -0.0000006769     2     9     6     2
 0.0002624370     2     9     6     3
 0.0000000213     2     9     6     4
 0.0000025006     2     9     6     5
 0.0000000074     2     9     6    10
 -0.2907938796     2     9     7     1
 -0.0000486201     2     9     7     2
 0.0188507255     2     9     7     3
 0.0000015303     2     9     7     4
 0.0001796179     2     9     7     5
 0.0000005298     2     9     7    10
 -0.0000000169     2     9     9     1
 -0.5568973447     2     9     9     2
 0.0000014676     2     9     9     3
 0.0190723033     2     9     9     4
 0.0000003137     2     9     9     5
 0.0032720863     2     9     9    10
 -0.0000000001     2     9    10     6
 -0.0000000108     2     9    10     7
 0.0039925102     2    10     1     1
 0.0000003337     2    10     1     2
 0.0000199436     2    10     1     3
 0.0000000001     2    10     1     4
 -0.0001350996     2    10     1     5
 -0.0634953018     2    10     3     1
 -0.0000106129     2    10     3     2
 0.0039117121     2    10     3     3
 -0.0000000829     2    10     3     4
 -0.0026554396     2    10     3     5
 -0.0000000064     2    10     4     1
 -0.0432614153     2    10     4     2
 -0.0000003551     2    10     4     3
 -0.0011273634     2    10     4     4
 -0.0000000841     2    10     4     5
 0.2701007661     2    10     5     1
 0.0000451653     2    10     5     2
 -0.0195520384     2    10     5     3
 -0.0000015879     2    10     5     4
 -0.0013602350     2    10     5     5
 -0.0022395384     2    10     6     6
 0.0000005298     2    10     6     8
 -0.0000000074     2    10     6     9
 -0.0022395384     2    10     7     7
 -0.0000000074     2    10     7     8
 -0.0000005298     2    10     7     9
 0.0000005139     2    10     8     6
 -0.0000000072     2    10     8     7
 -0.0032720862     2    10     8     8
 -0.0000000072     2    10     9     6
 -0.0000005138     2    10     9     7
 -0.0032720863     2    10     9     9
 -0.0000000178     2    10    10     1
 -0.5858131295     2    10    10     2
 0.0000014974     2    10    10     3
 0.0207571727     2    10    10     4
 0.0000007862     2    10    10     5
 -0.0000000375     3     1     1     2
 -0.5791988961     3     1     1     3
 0.0000543946     3     1     1     4
 0.0154227891     3     1     1     5
 0.0000106211     3     1     1    10
 0.0004477903     3     1     2     2
 0.0000000650     3     1     2     3
 -0.3253559205     3     1     2     4
 0.0000000066     3     1     2     5
 -0.0634953018     3     1     2    10
 -0.0000119801     3     1     4     2
 -0.0000000354     3     1     4     3
 -0.0007981426     3     1     4     4
 0.0000003244     3     1     4     5
 0.0030239936     3     1     4    10
 0.0038377696     3     1     5     3
 0.0000003795     3     1     5     4
 -0.0202105773     3     1     5     5
 -0.0000013251     3     1     5    10
 -0.0200285332     3     1     6     6
 -0.0000014004     3     1     6     8
 0.0000000195     3     1     6     9
 -0.0200285333     3     1     7     7
 0.0000000195     3     1     7     8
 0.0000014004     3     1     7     9
 -0.0000015777     3     1     8     6
 0.0000000220     3     1     8     7
 -0.0175719833     3     1     8     8
 0.0000000220     3     1     9     6
 0.0000015778     3     1     9     7
 -0.0175719833     3     1     9     9
 0.0000199436     3     1    10     2
 0.0000003264     3     1    10     3
 0.0042561179     3     1    10     4
 -0.0000016358     3     1    10     5
 -0.0179254442     3     1    10    10
 0.0000000375     3     2     1     1
 0.0000000650     3     2     1     3
 -0.3253434457     3     2     1     4
 0.0000000066     3     2     1     5
 -0.0635158185     3     2     1    10
 -0.0004477903     3     2     2     1
 -0.5791852805     3     2     2     3
 -0.0000543911     3     2     2     4
 0.0154229307     3     2     2     5
 -0.0000106129     3     2     2    10
 0.0000119801     3     2     4     1
 0.0004220563     3     2     4     3
 -0.0000000666     3     2     4     4
 -0.0038782327     3     2     4     5
 0.0000002529     3     2     4    10
 0.0000003210     3     2     5     3
 -0.0045304576     3     2     5     4
 -0.0000016872     3     2     5     5
 0.0158369127     3     2     5    10
 -0.0000016711     3     2     6     6
 0.0167306026     3     2     6     8
 -0.0002329209     3     2     6     9
 -0.0000016710     3     2     7     7
 -0.0002329209     3     2     7     8
 -0.0167306026     3     2     7     9
 0.0188507255     3     2     8     6
 -0.0002624370     3     2     8     7
 -0.0000014676     3     2     8     8
 -0.0002624370     3     2     9     6
 -0.0188507255     3     2     9     7
 -0.0000014676     3     2     9     9
 -0.0000199436     3     2    10     1
 -0.0039117121     3     2    10     3
 0.0000003551     3     2    10     4
 0.0195520384     3     2    10     5
 -0.0000014974     3     2    10    10
 0.5791988961     3     3     1     1
 -0.0000000650     3     3     1     2
 0.0000000354     3     3     1     4
 -0.0038377696     3     3     1     5
 -0.0000003264     3     3     1    10
 -0.0000000650     3     3     2     1
 0.5791852805     3     3     2     2
 -0.0004220563     3     3     2     4
 -0.0000003210     3     3     2     5
 0.0039117121     3     3     2    10
 0.0000000354     3     3     4     1
 -0.0004220563     3     3     4     2
 0.2506119682     3     3     4     4
 -0.0000000082     3     3     4     5
 0.0118010994     3     3     4    10
 -0.0038377696     3     3     5     1
 -0.0000003210     3     3     5     2
 -0.0000000082     3     3     5     4
 0.3829405989     3     3     5     5
 0.0000000266     3     3     5    10
 0.3821377871     3     3     6     6
 0.0000000267     3     3     6     8
 -0.0000000003     3     3     6     9
 0.3821377871     3     3     7     7
 -0.0000000004     3     3     7     8
 -0.0000000272     3     3     7     9
 0.0000000267     3     3     8     6
 -0.0000000004     3     3     8     7
 0.3884093490     3     3     8     8
 -0.0000000003     3     3     9     6
 -0.0000000272     3     3     9     7
 0.3884093491     3     3     9     9
 -0.0000003264     3     3    10     1
 0.0039117121     3     3    10     2
 0.0118010994     3     3    10     4
 0.0000000266     3     3    10     5
 0.4034431716     3     3    10    10
 -0.0000543946     3     4     1     1
 0.3253434457     3     4     1     2
 -0.0000000354     3     4     1     3
 -0.0000000525     3     4     1     5