&FCI NORB= 10,NELEC= 14,MS2=0,
 ORBSYM=1,1,1,1,1,1,1,1,1,1
 ISYM=1,
&END
 0.2116364367     1     1     2     2
 0.0000001154     1     1     2     3
 -0.0002262370     1     1     2     4
 0.0000019907     1     1     2     5
 0.0027504244     1     1     2    10
 0.0000001154     1     1     3     2
 0.5579211926     1     1     3     3
 -0.0004560456     1     1     3     4
 0.0087654935     1     1     3     5
 -0.0000462530     1     1     3    10
 -0.0002262370     1     1     4     2
 -0.0004560456     1     1     4     3
 0.5653012027     1     1     4     4
 0.0000837581     1     1     4     5
 0.0309071943     1     1     4    10
 0.0000019907     1     1     5     2
 0.0087654935     1     1     5     3
 0.0000837581     1     1     5     4
 0.5553118794     1     1     5     5
 -0.0003909061     1     1     5    10
 0.5598893593     1     1     6     6
 -0.0000000003     1     1     6     7
 0.0001062346     1     1     6     8
 -0.0003957039     1     1     6     9
 -0.0000000003     1     1     7     6
 0.5598893590     1     1     7     7
 -0.0003957037     1     1     7     8
 -0.0001062341     1     1     7     9
 0.0001062346     1     1     8     6
 -0.0003957037     1     1     8     7
 0.5386491902     1     1     8     8
 -0.0003957039     1     1     9     6
 -0.0001062341     1     1     9     7
 0.5386491902     1     1     9     9
 0.0027504244     1     1    10     2
 -0.0000462530     1     1    10     3
 0.0309071943     1     1    10     4
 -0.0003909061     1     1    10     5
 0.5625425418     1     1    10    10
 -0.2116364367     1     2     2     1
 -0.0001767710     1     2     2     3
 -0.0000001476     1     2     2     4
 -0.0030548484     1     2     2     5
 0.0000017925     1     2     2    10
 -0.0000001154     1     2     3     1
 -0.0000007231     1     2     3     3
 0.3498216480     1     2     3     4
 0.0000000598     1     2     3     5
 0.0354646796     1     2     3    10
 0.0002262370     1     2     4     1
 0.3498335990     1     2     4     3
 0.0000007005     1     2     4     4
 -0.0642426272     1     2     4     5
 0.0000000343     1     2     4    10
 -0.0000019907     1     2     5     1
 0.0000000598     1     2     5     3
 -0.0642537852     1     2     5     4
 -0.0000001437     1     2     5     5
 0.2999128030     1     2     5    10
 -0.0000001522     1     2     6     6
 0.0000000002     1     2     6     7
 -0.0814997344     1     2     6     8
 0.3035718038     1     2     6     9
 0.0000000002     1     2     7     6
 -0.0000001520     1     2     7     7
 0.3035718037     1     2     7     8
 0.0814997341     1     2     7     9
 -0.0814900964     1     2     8     6
 0.3035359039     1     2     8     7
 0.0000001113     1     2     8     8
 0.3035359041     1     2     9     6
 0.0814900960     1     2     9     7
 0.0000001113     1     2     9     9
 -0.0027504244     1     2    10     1
 0.0354532493     1     2    10     3
 0.0000000342     1     2    10     4
 0.2998345078     1     2    10     5
 0.0000001070     1     2    10    10
 -0.0000001154     1     3     2     1
 0.0001767710     1     3     2     2
 -0.0000118321     1     3     2     4
 0.0000110624     1     3     2    10
 -0.5579211926     1     3     3     1
 0.0000007231     1     3     3     2
 -0.0000001137     1     3     3     4
 -0.0020722718     1     3     3     5
 0.0000013588     1     3     3    10
 0.0004560456     1     3     4     1
 -0.3498335990     1     3     4     2
 -0.0004065381     1     3     4     4
 -0.0000019633     1     3     4     5
 0.0028201176     1     3     4    10
 -0.0087654935     1     3     5     1
 -0.0000000598     1     3     5     2
 -0.0000012358     1     3     5     4
 -0.0202241891     1     3     5     5
 0.0000127683     1     3     5    10
 -0.0209901280     1     3     6     6
 -0.0000032555     1     3     6     8
 0.0000121263     1     3     6     9
 -0.0209901279     1     3     7     7
 0.0000121264     1     3     7     8
 0.0000032556     1     3     7     9
 -0.0000029795     1     3     8     6
 0.0000110985     1     3     8     7
 -0.0176881134     1     3     8     8
 0.0000110985     1     3     9     6
 0.0000029796     1     3     9     7
 -0.0176881134     1     3     9     9
 0.0000462530     1     3    10     1
 -0.0354532493     1     3    10     2
 0.0016331209     1     3    10     4
 0.0000109556     1     3    10     5
 -0.0185828436     1     3    10    10
 0.0002262370     1     4     2     1
 0.0000001476     1     4     2     2
 0.0000118321     1     4     2     3
 0.0000105984     1     4     2     5
 0.0004560456     1     4     3     1
 -0.3498216480     1     4     3     2
 0.0000001137     1     4     3     3
 -0.0000007171     1     4     3     5
 0.0010972783     1     4     3    10
 -0.5653012027     1     4     4     1
 -0.0000007005     1     4     4     2
 0.0004065381     1     4     4     3
 0.0003297833     1     4     4     5
 -0.0000002351     1     4     4    10
 -0.0000837581     1     4     5     1
 0.0642537852     1     4     5     2
 0.0000012358     1     4     5     3
 0.0000128914     1     4     5     5
 -0.0190311596     1     4     5    10
 0.0000138024     1     4     6     6
 0.0049376944     1     4     6     8
 -0.0183920204     1     4     6     9
 0.0000138025     1     4     7     7
 -0.0183920204     1     4     7     8
 -0.0049376943     1     4     7     9
 0.0046939074     1     4     8     6
 -0.0174839582     1     4     8     7
 0.0000120698     1     4     8     8
 -0.0174839583     1     4     9     6
 -0.0046939074     1     4     9     7
 0.0000120698     1     4     9     9
 -0.0309071943     1     4    10     1
 -0.0000000342     1     4    10     2
 -0.0016331209     1     4    10     3
 -0.0175034704     1     4    10     5
 0.0000130553     1     4    10    10
 -0.0000019907     1     5     2     1
 0.0030548484     1     5     2     2
 -0.0000105984     1     5     2     4
 0.0000790253     1     5     2    10
 -0.0087654935     1     5     3     1
 -0.0000000598     1     5     3     2
 0.0020722718     1     5     3     3
 0.0000007171     1     5     3     4
 0.0000011847     1     5     3    10
 -0.0000837581     1     5     4     1
 0.0642426272     1     5     4     2
 0.0000019633     1     5     4     3
 -0.0003297833     1     5     4     4
 -0.0003779163     1     5     4    10
 -0.5553118794     1     5     5     1
 0.0000001437     1     5     5     2
 0.0202241891     1     5     5     3
 -0.0000128914     1     5     5     4
 -0.0000002237     1     5     5    10
 0.0027504256     1     5     6     6
 -0.0000000411     1     5     6     8
 0.0000001531     1     5     6     9
 0.0027504256     1     5     7     7
 0.0000001531     1     5     7     8
 0.0000000411     1     5     7     9
 -0.0000000677     1     5     8     6
 0.0000002523     1     5     8     7
 0.0022300497     1     5     8     8
 0.0000002523     1     5     9     6
 0.0000000677     1     5     9     7
 0.0022300497     1     5     9     9
 0.0003909061     1     5    10     1
 -0.2998345078     1     5    10     2
 -0.0000109556     1     5    10     3
 0.0175034704     1     5    10     4
 0.0061153980     1     5    10    10
 -0.0000099185     1     6     2     8
 0.0000369444     1     6     2     9
 -0.0000001328     1     6     3     8
 0.0000004948     1     6     3     9
 -0.0000028470     1     6     4     8
 0.0000106048     1     6     4     9
 -0.0000000320     1     6     5     8
 0.0000001195     1     6     5     9
 -0.5598893593     1     6     6     1
 0.0000001522     1     6     6     2
 0.0209901280     1     6     6     3
 -0.0000138024     1     6     6     4
 -0.0027504256     1     6     6     5
 -0.0000009191     1     6     6    10
 0.0000000003     1     6     7     1
 -0.0000000002     1     6     7     2
 -0.0000000001     1     6     7    10
 -0.0001062346     1     6     8     1
 0.0814900964     1     6     8     2
 0.0000029795     1     6     8     3
 -0.0046939074     1     6     8     4
 0.0000000677     1     6     8     5
 -0.0010689703     1     6     8    10
 0.0003957039     1     6     9     1
 -0.3035359041     1     6     9     2
 -0.0000110985     1     6     9     3
 0.0174839583     1     6     9     4
 -0.0000002523     1     6     9     5
 0.0039817216     1     6     9    10
 -0.0000309278     1     6    10     8
 0.0001152005     1     6    10     9
 0.0000369444     1     7     2     8
 0.0000099185     1     7     2     9
 0.0000004948     1     7     3     8
 0.0000001328     1     7     3     9
 0.0000106048     1     7     4     8
 0.0000028470     1     7     4     9
 0.0000001195     1     7     5     8
 0.0000000321     1     7     5     9
 0.0000000003     1     7     6     1
 -0.0000000002     1     7     6     2
 -0.0000000001     1     7     6    10
 -0.5598893590     1     7     7     1
 0.0000001520     1     7     7     2
 0.0209901279     1     7     7     3
 -0.0000138025     1     7     7     4
 -0.0027504256     1     7     7     5
 -0.0000009192     1     7     7    10
 0.0003957037     1     7     8     1
 -0.3035359039     1     7     8     2
 -0.0000110985     1     7     8     3
 0.0174839582     1     7     8     4
 -0.0000002523     1     7     8     5
 0.0039817216     1     7     8    10
 0.0001062341     1     7     9     1
 -0.0814900960     1     7     9     2
 -0.0000029796     1     7     9     3
 0.0046939074     1     7     9     4
 -0.0000000677     1     7     9     5
 0.0010689703     1     7     9    10
 0.0001152005     1     7    10     8
 0.0000309278     1     7    10     9
 0.0000099185     1     8     2     6
 -0.0000369444     1     8     2     7
 0.0000001328     1     8     3     6
 -0.0000004948     1     8     3     7
 0.0000028470     1     8     4     6
 -0.0000106048     1     8     4     7
 0.0000000320     1     8     5     6
 -0.0000001195     1     8     5     7
 -0.0001062346     1     8     6     1
 0.0814997344     1     8     6     2
 0.0000032555     1     8     6     3
 -0.0049376944     1     8     6     4
 0.0000000411     1     8     6     5
 -0.0011167131     1     8     6    10
 0.0003957037     1     8     7     1
 -0.3035718037     1     8     7     2
 -0.0000121264     1     8     7     3
 0.0183920204     1     8     7     4
 -0.0000001531     1     8     7     5
 0.0041595547     1     8     7    10
 -0.5386491902     1     8     8     1
 -0.0000001113     1     8     8     2
 0.0176881134     1     8     8     3
 -0.0000120698     1     8     8     4
 -0.0022300497     1     8     8     5
 -0.0000011485     1     8     8    10
 0.0000000001     1     8     9    10
 0.0000309278     1     8    10     6
 -0.0001152005     1     8    10     7
 -0.0000369444     1     9     2     6
 -0.0000099185     1     9     2     7
 -0.0000004948     1     9     3     6
 -0.0000001328     1     9     3     7
 -0.0000106048     1     9     4     6
 -0.0000028470     1     9     4     7
 -0.0000001195     1     9     5     6
 -0.0000000321     1     9     5     7
 0.0003957039     1     9     6     1
 -0.3035718038     1     9     6     2
 -0.0000121263     1     9     6     3
 0.0183920204     1     9     6     4
 -0.0000001531     1     9     6     5
 0.0041595547     1     9     6    10
 0.0001062341     1     9     7     1
 -0.0814997341     1     9     7     2
 -0.0000032556     1     9     7     3
 0.0049376943     1     9     7     4
 -0.0000000411     1     9     7     5
 0.0011167131     1     9     7    10
 0.0000000001     1     9     8    10
 -0.5386491902     1     9     9     1
 -0.0000001113     1     9     9     2
 0.0176881134     1     9     9     3
 -0.0000120698     1     9     9     4
 -0.0022300497     1     9     9     5
 -0.0000011485     1     9     9    10
 -0.0001152005     1     9    10     6
 -0.0000309278     1     9    10     7
 -0.0027504244     1    10     2     1
 -0.0000017925     1    10     2     2
 -0.0000110624     1    10     2     3
 -0.0000790253     1    10     2     5
 0.0000462530     1    10     3     1
 -0.0354646796     1    10     3     2
 -0.0000013588     1    10     3     3
 -0.0010972783     1    10     3     4
 -0.0000011847     1    10     3     5
 -0.0309071943     1    10     4     1
 -0.0000000343     1    10     4     2
 -0.0028201176     1    10     4     3
 0.0000002351     1    10     4     4
 0.0003779163     1    10     4     5
 0.0003909061     1    10     5     1
 -0.2999128030     1    10     5     2
 -0.0000127683     1    10     5     3
 0.0190311596     1    10     5     4
 0.0000002237     1    10     5     5
 0.0000009191     1    10     6     6
 0.0000000001     1    10     6     7
 0.0011167131     1    10     6     8
 -0.0041595547     1    10     6     9
 0.0000000001     1    10     7     6
 0.0000009192     1    10     7     7
 -0.0041595547     1    10     7     8
 -0.0011167131     1    10     7     9
 0.0010689703     1    10     8     6
 -0.0039817216     1    10     8     7
 0.0000011485     1    10     8     8
 -0.0000000001     1    10     8     9
 -0.0039817216     1    10     9     6
 -0.0010689703     1    10     9     7
 -0.0000000001     1    10     9     8
 0.0000011485     1    10     9     9
 -0.5625425418     1    10    10     1
 -0.0000001070     1    10    10     2
 0.0185828436     1    10    10     3
 -0.0000130553     1    10    10     4
 -0.0061153980     1    10    10     5
 -0.2116364367     2     1     1     2
 -0.0000001154     2     1     1     3
 0.0002262370     2     1     1     4
 -0.0000019907     2     1     1     5
 -0.0027504244     2     1     1    10
 -0.0001767710     2     1     3     2
 -0.0000007231     2     1     3     3
 0.3498335990     2     1     3     4
 0.0000000598     2     1     3     5
 0.0354532493     2     1     3    10
 -0.0000001476     2     1     4     2
 0.3498216480     2     1     4     3
 0.0000007005     2     1     4     4
 -0.0642537852     2     1     4     5
 0.0000000342     2     1     4    10
 -0.0030548484     2     1     5     2
 0.0000000598     2     1     5     3
 -0.0642426272     2     1     5     4
 -0.0000001437     2     1     5     5
 0.2998345078     2     1     5    10
 -0.0000001522     2     1     6     6
 0.0000000002     2     1     6     7
 -0.0814900964     2     1     6     8
 0.3035359041     2     1     6     9
 0.0000000002     2     1     7     6
 -0.0000001520     2     1     7     7
 0.3035359039     2     1     7     8
 0.0814900960     2     1     7     9
 -0.0814997344     2     1     8     6
 0.3035718037     2     1     8     7
 0.0000001113     2     1     8     8
 0.3035718038     2     1     9     6
 0.0814997341     2     1     9     7
 0.0000001113     2     1     9     9
 0.0000017925     2     1    10     2
 0.0354646796     2     1    10     3
 0.0000000343     2     1    10     4
 0.2999128030     2     1    10     5
 0.0000001070     2     1    10    10
 0.2116364367     2     2     1     1
 0.0001767710     2     2     1     3
 0.0000001476     2     2     1     4
 0.0030548484     2     2     1     5
 -0.0000017925     2     2     1    10
 0.0001767710     2     2     3     1
 0.5579082521     2     2     3     3
 0.0004560042     2     2     3     4
 0.0087614445     2     2     3     5
 0.0000461935     2     2     3    10
 0.0000001476     2     2     4     1
 0.0004560042     2     2     4     3
 0.5653120612     2     2     4     4
 -0.0000837459     2     2     4     5
 0.0309020184     2     2     4    10
 0.0030548484     2     2     5     1
 0.0087614445     2     2     5     3
 -0.0000837459     2     2     5     4
 0.5553969102     2     2     5     5
 0.0003909068     2     2     5    10
 0.5599351961     2     2     6     6
 -0.0000000003     2     2     6     7
 -0.0001062341     2     2     6     8
 0.0003957038     2     2     6     9
 -0.0000000003     2     2     7     6
 0.5599351958     2     2     7     7
 0.0003957039     2     2     7     8
 0.0001062346     2     2     7     9
 -0.0001062341     2     2     8     6
 0.0003957039     2     2     8     7
 0.5386191851     2     2     8     8
 0.0003957038     2     2     9     6
 0.0001062346     2     2     9     7
 0.5386191851     2     2     9     9
 -0.0000017925     2     2    10     1
 0.0000461935     2     2    10     3
 0.0309020184     2     2    10     4
 0.0003909068     2     2    10     5
 0.5624659646     2     2    10    10
 0.0000001154     2     3     1     1
 -0.0001767710     2     3     1     2
 0.0000118321     2     3     1     4
 -0.0000110624     2     3     1    10
 0.0000007231     2     3     3     1
 -0.5579082521     2     3     3     2
 0.0001750582     2     3     3     4
 -0.0000013545     2     3     3     5
 -0.0020912152     2     3     3    10
 -0.3498216480     2     3     4     1
 -0.0004560042     2     3     4     2
 -0.0000002648     2     3     4     4
 0.0030075687     2     3     4     5
 0.0000018356     2     3     4    10
 -0.0000000598     2     3     5     1
 -0.0087614445     2     3     5     2
 0.0018954504     2     3     5     4
 -0.0000131545     2     3     5     5
 -0.0195575909     2     3     5    10
 -0.0000136508     2     3     6     6
 0.0049865998     2     3     6     8
 -0.0185741844     2     3     6     9
 -0.0000136508     2     3     7     7
 -0.0185741844     2     3     7     8
 -0.0049865997     2     3     7     9
 0.0045635959     2     3     8     6
 -0.0169985711     2     3     8     7
 -0.0000115141     2     3     8     8
 -0.0169985711     2     3     9     6
 -0.0045635959     2     3     9     7
 -0.0000115141     2     3     9     9
 -0.0354646796     2     3    10     1
 -0.0000461935     2     3    10     2
 0.0000010646     2     3    10     4
 -0.0167781846     2     3    10     5
 -0.0000120936     2     3    10    10
 -0.0002262370     2     4     1     1
 -0.0000001476     2     4     1     2
 -0.0000118321     2     4     1     3
 -0.0000105984     2     4     1     5
 -0.3498335990     2     4     3     1
 -0.0004560042     2     4     3     2
 -0.0001750582     2     4     3     3
 0.0010961975     2     4     3     5
 0.0000007126     2     4     3    10
 -0.0000007005     2     4     4     1
 -0.5653120612     2     4     4     2
 0.0000002648     2     4     4     3
 0.0000002190     2     4     4     5
 0.0003666313     2     4     4    10
 0.0642426272     2     4     5     1
 0.0000837459     2     4     5     2
 -0.0018954504     2     4     5     3
 -0.0197996516     2     4     5     5
 -0.0000124226     2     4     5    10
 -0.0211963723     2     4     6     6
 0.0000032232     2     4     6     8
 -0.0000120055     2     4     6     9
 -0.0211963722     2     4     7     7
 -0.0000120055     2     4     7     8
 -0.0000032231     2     4     7     9
 0.0000030638     2     4     8     6
 -0.0000114120     2     4     8     7
 -0.0185526752     2     4     8     8
 -0.0000114121     2     4     9     6
 -0.0000030638     2     4     9     7
 -0.0185526752     2     4     9     9
 -0.0000000343     2     4    10     1
 -0.0309020184     2     4    10     2
 -0.0000010646     2     4    10     3
 -0.0000114237     2     4    10     5
 -0.0200628890     2     4    10    10
 0.0000019907     2     5     1     1
 -0.0030548484     2     5     1     2
 0.0000105984     2     5     1     4
 -0.0000790253     2     5     1    10
 -0.0000000598     2     5     3     1
 -0.0087614445     2     5     3     2
 0.0000013545     2     5     3     3
 -0.0010961975     2     5     3     4
 -0.0018171721     2     5     3    10
 0.0642537852     2     5     4     1
 0.0000837459     2     5     4     2
 -0.0030075687     2     5     4     3
 -0.0000002190     2     5     4     4
 -0.0000002482     2     5     4    10
 0.0000001437     2     5     5     1
 -0.5553969102     2     5     5     2
 0.0000131545     2     5     5     3
 0.0197996516     2     5     5     4
 0.0003421349     2     5     5    10
 0.0000017933     2     5     6     6
 0.0000000001     2     5     6     7
 0.0000627274     2     5     6     8
 -0.0002336482     2     5     6     9
 0.0000000001     2     5     7     6
 0.0000017932     2     5     7     7
 -0.0002336482     2     5     7     8
 -0.0000627274     2     5     7     9
 0.0001035996     2     5     8     6
 -0.0003858898     2     5     8     7
 0.0000014537     2     5     8     8
 -0.0000000001     2     5     8     9
 -0.0003858898     2     5     9     6
 -0.0001035996     2     5     9     7
 -0.0000000001     2     5     9     8
 0.0000014537     2     5     9     9
 -0.2999128030     2     5    10     1
 -0.0003909068     2     5    10     2
 0.0167781846     2     5    10     3
 0.0000114237     2     5    10     4
 0.0000039856     2     5    10    10
 0.0000099185     2     6     1     8
 -0.0000369444     2     6     1     9
 0.0002036813     2     6     3     8
 -0.0007586761     2     6     3     9
 -0.0000000016     2     6     4     8
 0.0000000063     2     6     4     9
 0.0000491718     2     6     5     8
 -0.0001831559     2     6     5     9
 0.0000001522     2     6     6     1
 -0.5599351961     2     6     6     2
 0.0000136508     2     6     6     3
 0.0211963723     2     6     6     4
 -0.0000017933     2     6     6     5
 0.0014070664     2     6     6    10
 -0.0000000002     2     6     7     1
 0.0000000003     2     6     7     2
 -0.0000000001     2     6     7     5
 0.0814997344     2     6     8     1
 0.0001062341     2     6     8     2
 -0.0045635959     2     6     8     3
 -0.0000030638     2     6     8     4
 -0.0001035996     2     6     8     5
 -0.0000006966     2     6     8    10
 -0.3035718038     2     6     9     1
 -0.0003957038     2     6     9     2
 0.0169985711     2     6     9     3
 0.0000114121     2     6     9     4
 0.0003858898     2     6     9     5
 0.0000025948     2     6     9    10
 -0.0000000202     2     6    10     8
 0.0000000750     2     6    10     9
 -0.0000369444     2     7     1     8
 -0.0000099185     2     7     1     9
 -0.0007586760     2     7     3     8
 -0.0002036812     2     7     3     9
 0.0000000063     2     7     4     8
 0.0000000017     2     7     4     9
 -0.0001831559     2     7     5     8
 -0.0000491717     2     7     5     9
 -0.0000000002     2     7     6     1
 0.0000000003     2     7     6     2
 -0.0000000001     2     7     6     5
 0.0000001520     2     7     7     1
 -0.5599351958     2     7     7     2
 0.0000136508     2     7     7     3
 0.0211963722     2     7     7     4
 -0.0000017932     2     7     7     5
 0.0014070665     2     7     7    10
 -0.3035718037     2     7     8     1
 -0.0003957039     2     7     8     2
 0.0169985711     2     7     8     3
 0.0000114120     2     7     8     4
 0.0003858898     2     7     8     5
 0.0000025948     2     7     8    10
 -0.0814997341     2     7     9     1
 -0.0001062346     2     7     9     2
 0.0045635959     2     7     9     3
 0.0000030638     2     7     9     4
 0.0001035996     2     7     9     5
 0.0000006966     2     7     9    10
 0.0000000750     2     7    10     8
 0.0000000202     2     7    10     9
 -0.0000099185     2     8     1     6
 0.0000369444     2     8     1     7
 -0.0002036813     2     8     3     6
 0.0007586760     2     8     3     7
 0.0000000016     2     8     4     6
 -0.0000000063     2     8     4     7
 -0.0000491718     2     8     5     6
 0.0001831559     2     8     5     7
 0.0814900964     2     8     6     1
 0.0001062341     2     8     6     2
 -0.0049865998     2     8     6     3
 -0.0000032232     2     8     6     4
 -0.0000627274     2     8     6     5
 -0.0000007278     2     8     6    10
 -0.3035359039     2     8     7     1
 -0.0003957039     2     8     7     2
 0.0185741844     2     8     7     3
 0.0000120055     2     8     7     4
 0.0002336482     2     8     7     5
 0.0000027107     2     8     7    10
 -0.0000001113     2     8     8     1
 -0.5386191851     2     8     8     2
 0.0000115141     2     8     8     3
 0.0185526752     2     8     8     4
 -0.0000014537     2     8     8     5
 0.0017630523     2     8     8    10
 0.0000000001     2     8     9     5
 0.0000000202     2     8    10     6
 -0.0000000750     2     8    10     7
 0.0000369444     2     9     1     6
 0.0000099185     2     9     1     7
 0.0007586761     2     9     3     6
 0.0002036812     2     9     3     7
 -0.0000000063     2     9     4     6
 -0.0000000017     2     9     4     7
 0.0001831559     2     9     5     6
 0.0000491717     2     9     5     7
 -0.3035359041     2     9     6     1
 -0.0003957038     2     9     6     2
 0.0185741844     2     9     6     3
 0.0000120055     2     9     6     4
 0.0002336482     2     9     6     5
 0.0000027107     2     9     6    10
 -0.0814900960     2     9     7     1
 -0.0001062346     2     9     7     2
 0.0049865997     2     9     7     3
 0.0000032231     2     9     7     4
 0.0000627274     2     9     7     5
 0.0000007278     2     9     7    10
 0.0000000001     2     9     8     5
 -0.0000001113     2     9     9     1
 -0.5386191851     2     9     9     2
 0.0000115141     2     9     9     3
 0.0185526752     2     9     9     4
 -0.0000014537     2     9     9     5
 0.0017630523     2     9     9    10
 -0.0000000750     2     9    10     6
 -0.0000000202     2     9    10     7
 0.0027504244     2    10     1     1
 0.0000017925     2    10     1     2
 0.0000110624     2    10     1     3
 0.0000790253     2    10     1     5
 -0.0354532493     2    10     3     1
 -0.0000461935     2    10     3     2
 0.0020912152     2    10     3     3
 -0.0000007126     2    10     3     4
 0.0018171721     2    10     3     5
 -0.0000000342     2    10     4     1
 -0.0309020184     2    10     4     2
 -0.0000018356     2    10     4     3
 -0.0003666313     2    10     4     4
 0.0000002482     2    10     4     5
 -0.2998345078     2    10     5     1
 -0.0003909068     2    10     5     2
 0.0195575909     2    10     5     3
 0.0000124226     2    10     5     4
 -0.0003421349     2    10     5     5
 -0.0014070664     2    10     6     6
 0.0000007278     2    10     6     8
 -0.0000027107     2    10     6     9
 -0.0014070665     2    10     7     7
 -0.0000027107     2    10     7     8
 -0.0000007278     2    10     7     9
 0.0000006966     2    10     8     6
 -0.0000025948     2    10     8     7
 -0.0017630523     2    10     8     8
 -0.0000025948     2    10     9     6
 -0.0000006966     2    10     9     7
 -0.0017630523     2    10     9     9
 -0.0000001070     2    10    10     1
 -0.5624659646     2    10    10     2
 0.0000120936     2    10    10     3
 0.0200628890     2    10    10     4
 -0.0000039856     2    10    10     5
 -0.0000001154     3     1     1     2
 -0.5579211926     3     1     1     3
 0.0004560456     3     1     1     4
 -0.0087654935     3     1     1     5
 0.0000462530     3     1     1    10
 0.0001767710     3     1     2     2
 0.0000007231     3     1     2     3
 -0.3498335990     3     1     2     4
 -0.0000000598     3     1     2     5
 -0.0354532493     3     1     2    10
 -0.0000118321     3     1     4     2
 -0.0000001137     3     1     4     3
 -0.0004065381     3     1     4     4
 -0.0000012358     3     1     4     5
 0.0016331209     3     1     4    10
 -0.0020722718     3     1     5     3
 -0.0000019633     3     1     5     4
 -0.0202241891     3     1     5     5
 0.0000109556     3     1     5    10
 -0.0209901280     3     1     6     6
 -0.0000029795     3     1     6     8
 0.0000110985     3     1     6     9
 -0.0209901279     3     1     7     7
 0.0000110985     3     1     7     8
 0.0000029796     3     1     7     9
 -0.0000032555     3     1     8     6
 0.0000121264     3     1     8     7
 -0.0176881134     3     1     8     8
 0.0000121263     3     1     9     6
 0.0000032556     3     1     9     7
 -0.0176881134     3     1     9     9
 0.0000110624     3     1    10     2
 0.0000013588     3     1    10     3
 0.0028201176     3     1    10     4
 0.0000127683     3     1    10     5
 -0.0185828436     3     1    10    10
 0.0000001154     3     2     1     1
 0.0000007231     3     2     1     3
 -0.3498216480     3     2     1     4
 -0.0000000598     3     2     1     5
 -0.0354646796     3     2     1    10
 -0.0001767710     3     2     2     1
 -0.5579082521     3     2     2     3
 -0.0004560042     3     2     2     4
 -0.0087614445     3     2     2     5
 -0.0000461935     3     2     2    10
 0.0000118321     3     2     4     1
 0.0001750582     3     2     4     3
 -0.0000002648     3     2     4     4
 0.0018954504     3     2     4     5
 0.0000010646     3     2     4    10
 -0.0000013545     3     2     5     3
 0.0030075687     3     2     5     4
 -0.0000131545     3     2     5     5
 -0.0167781846     3     2     5    10
 -0.0000136508     3     2     6     6
 0.0045635959     3     2     6     8
 -0.0169985711     3     2     6     9
 -0.0000136508     3     2     7     7
 -0.0169985711     3     2     7     8
 -0.0045635959     3     2     7     9
 0.0049865998     3     2     8     6
 -0.0185741844     3     2     8     7
 -0.0000115141     3     2     8     8
 -0.0185741844     3     2     9     6
 -0.0049865997     3     2     9     7
 -0.0000115141     3     2     9     9
 -0.0000110624     3     2    10     1
 -0.0020912152     3     2    10     3
 0.0000018356     3     2    10     4
 -0.0195575909     3     2    10     5
 -0.0000120936     3     2    10    10
 0.5579211926     3     3     1     1
 -0.0000007231     3     3     1     2
 0.0000001137     3     3     1     4
 0.0020722718     3     3     1     5
 -0.0000013588     3     3     1    10
 -0.0000007231     3     3     2     1
 0.5579082521     3     3     2     2
 -0.0001750582     3     3     2     4
 0.0000013545     3     3     2     5
 0.0020912152     3     3     2    10
 0.0000001137     3     3     4     1
 -0.0001750582     3     3     4     2
 0.2084629304     3     3     4     4