&FCI NORB= 10,NELEC= 14,MS2=0,
 ORBSYM=1,1,1,1,1,1,1,1,1,1
 ISYM=1,
&END
 0.2405144146     1     1     2     2
 0.0000000139     1     1     2     3
 -0.0004424154     1     1     2     4
 -0.0000001576     1     1     2     5
 0.0036273812     1     1     2    10
 0.0000000139     1     1     3     2
 0.5727485228     1     1     3     3
 -0.0000268748     1     1     3     4
 -0.0127589677     1     1     3     5
 -0.0000044100     1     1     3    10
 -0.0004424154     1     1     4     2
 -0.0000268748     1     1     4     3
 0.5796548988     1     1     4     4
 -0.0000074357     1     1     4     5
 0.0398327091     1     1     4    10
 -0.0000001576     1     1     5     2
 -0.0127589677     1     1     5     3
 -0.0000074357     1     1     5     4
 0.5707572560     1     1     5     5
 0.0000224599     1     1     5    10
 0.5677377814     1     1     6     6
 0.0000227931     1     1     6     8
 -0.0000075569     1     1     6     9
 0.5677377814     1     1     7     7
 -0.0000075572     1     1     7     8
 -0.0000227931     1     1     7     9
 0.0000227931     1     1     8     6
 -0.0000075572     1     1     8     7
 0.5520438109     1     1     8     8
 -0.0000075569     1     1     9     6
 -0.0000227931     1     1     9     7
 0.5520438109     1     1     9     9
 0.0036273812     1     1    10     2
 -0.0000044100     1     1    10     3
 0.0398327091     1     1    10     4
 0.0000224599     1     1    10     5
 0.5805009815     1     1    10    10
 -0.2405144146     1     2     2     1
 -0.0003438745     1     2     2     3
 -0.0000000179     1     2     2     4
 0.0039082366     1     2     2     5
 0.0000001464     1     2     2    10
 -0.0000000139     1     2     3     1
 -0.0000000343     1     2     3     3
 0.3329142046     1     2     3     4
 -0.0000000030     1     2     3     5
 0.0546077435     1     2     3    10
 0.0004424154     1     2     4     1
 0.3329261267     1     2     4     3
 0.0000000336     1     2     4     4
 0.0920936015     1     2     4     5
 0.0000000030     1     2     4    10
 0.0000001576     1     2     5     1
 -0.0000000030     1     2     5     3
 0.0921137855     1     2     5     4
 -0.0000000135     1     2     5     5
 -0.2782599595     1     2     5    10
 -0.0000000104     1     2     6     6
 0.0000000002     1     2     6     7
 -0.2823849300     1     2     6     8
 0.0936240909     1     2     6     9
 0.0000000002     1     2     7     6
 -0.0000000106     1     2     7     7
 0.0936240910     1     2     7     8
 0.2823849300     1     2     7     9
 -0.2823312869     1     2     8     6
 0.0936063058     1     2     8     7
 0.0000000080     1     2     8     8
 0.0936063056     1     2     9     6
 0.2823312869     1     2     9     7
 0.0000000079     1     2     9     9
 -0.0036273812     1     2    10     1
 0.0545907563     1     2    10     3
 0.0000000030     1     2    10     4
 -0.2781444408     1     2    10     5
 0.0000000077     1     2    10    10
 -0.0000000139     1     3     2     1
 0.0003438745     1     3     2     2
 -0.0000115526     1     3     2     4
 0.0000164721     1     3     2    10
 -0.5727485228     1     3     3     1
 0.0000000343     1     3     3     2
 -0.0000000125     1     3     3     4
 0.0032501322     1     3     3     5
 0.0000001330     1     3     3    10
 0.0000268748     1     3     4     1
 -0.3329261267     1     3     4     2
 -0.0006467671     1     3     4     4
 0.0000001640     1     3     4     5
 0.0038293243     1     3     4    10
 0.0127589677     1     3     5     1
 0.0000000030     1     3     5     2
 0.0000001297     1     3     5     4
 -0.0201027011     1     3     5     5
 -0.0000007893     1     3     5    10
 -0.0203219581     1     3     6     6
 -0.0000007269     1     3     6     8
 0.0000002410     1     3     6     9
 -0.0203219582     1     3     7     7
 0.0000002409     1     3     7     8
 0.0000007269     1     3     7     9
 -0.0000006516     1     3     8     6
 0.0000002160     1     3     8     7
 -0.0176352376     1     3     8     8
 0.0000002161     1     3     9     6
 0.0000006516     1     3     9     7
 -0.0176352376     1     3     9     9
 0.0000044100     1     3    10     1
 -0.0545907563     1     3    10     2
 0.0025554967     1     3    10     4
 -0.0000006483     1     3    10     5
 -0.0182749981     1     3    10    10
 0.0004424154     1     4     2     1
 0.0000000179     1     4     2     2
 0.0000115526     1     4     2     3
 -0.0000192904     1     4     2     5
 0.0000268748     1     4     3     1
 -0.3329142046     1     4     3     2
 0.0000000125     1     4     3     3
 0.0000000332     1     4     3     5
 0.0010849983     1     4     3    10
 -0.5796548988     1     4     4     1
 -0.0000000336     1     4     4     2
 0.0006467671     1     4     4     3
 -0.0007821828     1     4     4     5
 -0.0000000348     1     4     4    10
 0.0000074357     1     4     5     1
 -0.0921137855     1     4     5     2
 -0.0000001297     1     4     5     3
 0.0000007868     1     4     5     5
 0.0189336954     1     4     5    10
 0.0000008331     1     4     6     6
 0.0175912117     1     4     6     8
 -0.0058323269     1     4     6     9
 0.0000008331     1     4     7     7
 -0.0058323269     1     4     7     8
 -0.0175912117     1     4     7     9
 0.0167539437     1     4     8     6
 -0.0055547325     1     4     8     7
 0.0000007633     1     4     8     8
 -0.0055547325     1     4     9     6
 -0.0167539437     1     4     9     7
 0.0000007633     1     4     9     9
 -0.0398327091     1     4    10     1
 -0.0000000030     1     4    10     2
 -0.0025554967     1     4    10     3
 0.0168580324     1     4    10     5
 0.0000008324     1     4    10    10
 0.0000001576     1     5     2     1
 -0.0039082366     1     5     2     2
 0.0000192904     1     5     2     4
 -0.0001171915     1     5     2    10
 0.0127589677     1     5     3     1
 0.0000000030     1     5     3     2
 -0.0032501322     1     5     3     3
 -0.0000000332     1     5     3     4
 -0.0000000984     1     5     3    10
 0.0000074357     1     5     4     1
 -0.0920936015     1     5     4     2
 -0.0000001640     1     5     4     3
 0.0007821828     1     5     4     4
 0.0007725109     1     5     4    10
 -0.5707572560     1     5     5     1
 0.0000000135     1     5     5     2
 0.0201027011     1     5     5     3
 -0.0000007868     1     5     5     4
 -0.0000000401     1     5     5    10
 -0.0039844906     1     5     6     6
 -0.0000000020     1     5     6     8
 0.0000000006     1     5     6     9
 -0.0039844906     1     5     7     7
 0.0000000006     1     5     7     8
 0.0000000020     1     5     7     9
 -0.0000000097     1     5     8     6
 0.0000000033     1     5     8     7
 -0.0033037603     1     5     8     8
 0.0000000032     1     5     9     6
 0.0000000097     1     5     9     7
 -0.0033037603     1     5     9     9
 -0.0000224599     1     5    10     1
 0.2781444408     1     5    10     2
 0.0000006483     1     5    10     3
 -0.0168580324     1     5    10     4
 -0.0084392970     1     5    10    10
 -0.0000537275     1     6     2     8
 0.0000178132     1     6     2     9
 -0.0000000409     1     6     3     8
 0.0000000136     1     6     3     9
 -0.0001602846     1     6     4     8
 0.0000531419     1     6     4     9
 0.0000000178     1     6     5     8
 -0.0000000058     1     6     5     9
 -0.5677377814     1     6     6     1
 0.0000000104     1     6     6     2
 0.0203219581     1     6     6     3
 -0.0000008331     1     6     6     4
 0.0039844906     1     6     6     5
 -0.0000000809     1     6     6    10
 -0.0000000002     1     6     7     2
 -0.0000227931     1     6     8     1
 0.2823312869     1     6     8     2
 0.0000006516     1     6     8     3
 -0.0167539437     1     6     8     4
 0.0000000097     1     6     8     5
 -0.0052715085     1     6     8    10
 0.0000075569     1     6     9     1
 -0.0936063056     1     6     9     2
 -0.0000002161     1     6     9     3
 0.0055547325     1     6     9     4
 -0.0000000032     1     6     9     5
 0.0017477568     1     6     9    10
 -0.0001217637     1     6    10     8
 0.0000403705     1     6    10     9
 0.0000178132     1     7     2     8
 0.0000537275     1     7     2     9
 0.0000000136     1     7     3     8
 0.0000000409     1     7     3     9
 0.0000531419     1     7     4     8
 0.0001602846     1     7     4     9
 -0.0000000058     1     7     5     8
 -0.0000000178     1     7     5     9
 -0.0000000002     1     7     6     2
 -0.5677377814     1     7     7     1
 0.0000000106     1     7     7     2
 0.0203219582     1     7     7     3
 -0.0000008331     1     7     7     4
 0.0039844906     1     7     7     5
 -0.0000000808     1     7     7    10
 0.0000075572     1     7     8     1
 -0.0936063058     1     7     8     2
 -0.0000002160     1     7     8     3
 0.0055547325     1     7     8     4
 -0.0000000033     1     7     8     5
 0.0017477568     1     7     8    10
 0.0000227931     1     7     9     1
 -0.2823312869     1     7     9     2
 -0.0000006516     1     7     9     3
 0.0167539437     1     7     9     4
 -0.0000000097     1     7     9     5
 0.0052715086     1     7     9    10
 0.0000403705     1     7    10     8
 0.0001217637     1     7    10     9
 0.0000537275     1     8     2     6
 -0.0000178132     1     8     2     7
 0.0000000409     1     8     3     6
 -0.0000000136     1     8     3     7
 0.0001602846     1     8     4     6
 -0.0000531419     1     8     4     7
 -0.0000000178     1     8     5     6
 0.0000000058     1     8     5     7
 -0.0000227931     1     8     6     1
 0.2823849300     1     8     6     2
 0.0000007269     1     8     6     3
 -0.0175912117     1     8     6     4
 0.0000000020     1     8     6     5
 -0.0054628312     1     8     6    10
 0.0000075572     1     8     7     1
 -0.0936240910     1     8     7     2
 -0.0000002409     1     8     7     3
 0.0058323269     1     8     7     4
 -0.0000000006     1     8     7     5
 0.0018111895     1     8     7    10
 -0.5520438109     1     8     8     1
 -0.0000000080     1     8     8     2
 0.0176352376     1     8     8     3
 -0.0000007633     1     8     8     4
 0.0033037603     1     8     8     5
 -0.0000001131     1     8     8    10
 0.0001217637     1     8    10     6
 -0.0000403705     1     8    10     7
 -0.0000178132     1     9     2     6
 -0.0000537275     1     9     2     7
 -0.0000000136     1     9     3     6
 -0.0000000409     1     9     3     7
 -0.0000531419     1     9     4     6
 -0.0001602846     1     9     4     7
 0.0000000058     1     9     5     6
 0.0000000178     1     9     5     7
 0.0000075569     1     9     6     1
 -0.0936240909     1     9     6     2
 -0.0000002410     1     9     6     3
 0.0058323269     1     9     6     4
 -0.0000000006     1     9     6     5
 0.0018111895     1     9     6    10
 0.0000227931     1     9     7     1
 -0.2823849300     1     9     7     2
 -0.0000007269     1     9     7     3
 0.0175912117     1     9     7     4
 -0.0000000020     1     9     7     5
 0.0054628312     1     9     7    10
 -0.5520438109     1     9     9     1
 -0.0000000079     1     9     9     2
 0.0176352376     1     9     9     3
 -0.0000007633     1     9     9     4
 0.0033037603     1     9     9     5
 -0.0000001131     1     9     9    10
 -0.0000403705     1     9    10     6
 -0.0001217637     1     9    10     7
 -0.0036273812     1    10     2     1
 -0.0000001464     1    10     2     2
 -0.0000164721     1    10     2     3
 0.0001171915     1    10     2     5
 0.0000044100     1    10     3     1
 -0.0546077435     1    10     3     2
 -0.0000001330     1    10     3     3
 -0.0010849983     1    10     3     4
 0.0000000984     1    10     3     5
 -0.0398327091     1    10     4     1
 -0.0000000030     1    10     4     2
 -0.0038293243     1    10     4     3
 0.0000000348     1    10     4     4
 -0.0007725109     1    10     4     5
 -0.0000224599     1    10     5     1
 0.2782599595     1    10     5     2
 0.0000007893     1    10     5     3
 -0.0189336954     1    10     5     4
 0.0000000401     1    10     5     5
 0.0000000809     1    10     6     6
 0.0054628312     1    10     6     8
 -0.0018111895     1    10     6     9
 0.0000000808     1    10     7     7
 -0.0018111895     1    10     7     8
 -0.0054628312     1    10     7     9
 0.0052715085     1    10     8     6
 -0.0017477568     1    10     8     7
 0.0000001131     1    10     8     8
 -0.0017477568     1    10     9     6
 -0.0052715086     1    10     9     7
 0.0000001131     1    10     9     9
 -0.5805009815     1    10    10     1
 -0.0000000077     1    10    10     2
 0.0182749981     1    10    10     3
 -0.0000008324     1    10    10     4
 0.0084392970     1    10    10     5
 -0.2405144146     2     1     1     2
 -0.0000000139     2     1     1     3
 0.0004424154     2     1     1     4
 0.0000001576     2     1     1     5
 -0.0036273812     2     1     1    10
 -0.0003438745     2     1     3     2
 -0.0000000343     2     1     3     3
 0.3329261267     2     1     3     4
 -0.0000000030     2     1     3     5
 0.0545907563     2     1     3    10
 -0.0000000179     2     1     4     2
 0.3329142046     2     1     4     3
 0.0000000336     2     1     4     4
 0.0921137855     2     1     4     5
 0.0000000030     2     1     4    10
 0.0039082366     2     1     5     2
 -0.0000000030     2     1     5     3
 0.0920936015     2     1     5     4
 -0.0000000135     2     1     5     5
 -0.2781444408     2     1     5    10
 -0.0000000104     2     1     6     6
 0.0000000002     2     1     6     7
 -0.2823312869     2     1     6     8
 0.0936063056     2     1     6     9
 0.0000000002     2     1     7     6
 -0.0000000106     2     1     7     7
 0.0936063058     2     1     7     8
 0.2823312869     2     1     7     9
 -0.2823849300     2     1     8     6
 0.0936240910     2     1     8     7
 0.0000000080     2     1     8     8
 0.0936240909     2     1     9     6
 0.2823849300     2     1     9     7
 0.0000000079     2     1     9     9
 0.0000001464     2     1    10     2
 0.0546077435     2     1    10     3
 0.0000000030     2     1    10     4
 -0.2782599595     2     1    10     5
 0.0000000077     2     1    10    10
 0.2405144146     2     2     1     1
 0.0003438745     2     2     1     3
 0.0000000179     2     2     1     4
 -0.0039082366     2     2     1     5
 -0.0000001464     2     2     1    10
 0.0003438745     2     2     3     1
 0.5727352641     2     2     3     3
 0.0000268739     2     2     3     4
 -0.0127568240     2     2     3     5
 0.0000044048     2     2     3    10
 0.0000000179     2     2     4     1
 0.0000268739     2     2     4     3
 0.5796633433     2     2     4     4
 0.0000074340     2     2     4     5
 0.0398326917     2     2     4    10
 -0.0039082366     2     2     5     1
 -0.0127568240     2     2     5     3
 0.0000074340     2     2     5     4
 0.5708815450     2     2     5     5
 -0.0000224548     2     2     5    10
 0.5678038337     2     2     6     6
 -0.0000227924     2     2     6     8
 0.0000075569     2     2     6     9
 0.5678038337     2     2     7     7
 0.0000075566     2     2     7     8
 0.0000227924     2     2     7     9
 -0.0000227924     2     2     8     6
 0.0000075566     2     2     8     7
 0.5520003640     2     2     8     8
 0.0000075569     2     2     9     6
 0.0000227924     2     2     9     7
 0.5520003640     2     2     9     9
 -0.0000001464     2     2    10     1
 0.0000044048     2     2    10     3
 0.0398326917     2     2    10     4
 -0.0000224548     2     2    10     5
 0.5803869790     2     2    10    10
 0.0000000139     2     3     1     1
 -0.0003438745     2     3     1     2
 0.0000115526     2     3     1     4
 -0.0000164721     2     3     1    10
 0.0000000343     2     3     3     1
 -0.5727352641     2     3     3     2
 0.0003119257     2     3     3     4
 0.0000001313     2     3     3     5
 -0.0033026520     2     3     3    10
 -0.3329142046     2     3     4     1
 -0.0000268739     2     3     4     2
 -0.0000000261     2     3     4     4
 -0.0040516711     2     3     4     5
 0.0000001543     2     3     4    10
 0.0000000030     2     3     5     1
 0.0127568240     2     3     5     2
 -0.0032095824     2     3     5     4
 -0.0000008101     2     3     5     5
 0.0195323304     2     3     5    10
 -0.0000008187     2     3     6     6
 0.0179854553     2     3     6     8
 -0.0059630374     2     3     6     9
 -0.0000008187     2     3     7     7
 -0.0059630373     2     3     7     8
 -0.0179854553     2     3     7     9
 0.0161220738     2     3     8     6
 -0.0053452375     2     3     8     7
 -0.0000007111     2     3     8     8
 -0.0053452375     2     3     9     6
 -0.0161220738     2     3     9     7
 -0.0000007111     2     3     9     9
 -0.0546077435     2     3    10     1
 -0.0000044048     2     3    10     2
 0.0000001032     2     3    10     4
 0.0160478241     2     3    10     5
 -0.0000007370     2     3    10    10
 -0.0004424154     2     4     1     1
 -0.0000000179     2     4     1     2
 -0.0000115526     2     4     1     3
 0.0000192904     2     4     1     5
 -0.3329261267     2     4     3     1
 -0.0000268739     2     4     3     2
 -0.0003119257     2     4     3     3
 -0.0008140586     2     4     3     5
 0.0000000434     2     4     3    10
 -0.0000000336     2     4     4     1
 -0.5796633433     2     4     4     2
 0.0000000261     2     4     4     3
 -0.0000000317     2     4     4     5
 0.0008678420     2     4     4    10
 -0.0920936015     2     4     5     1
 -0.0000074340     2     4     5     2
 0.0032095824     2     4     5     3
 -0.0195173930     2     4     5     5
 0.0000007654     2     4     5    10
 -0.0206547669     2     4     6     6
 0.0000007109     2     4     6     8
 -0.0000002356     2     4     6     9
 -0.0206547669     2     4     7     7
 -0.0000002357     2     4     7     8
 -0.0000007109     2     4     7     9
 0.0000006770     2     4     8     6
 -0.0000002245     2     4     8     7
 -0.0189428799     2     4     8     8
 -0.0000002244     2     4     9     6
 -0.0000006769     2     4     9     7
 -0.0189428799     2     4     9     9
 -0.0000000030     2     4    10     1
 -0.0398326917     2     4    10     2
 -0.0000001032     2     4    10     3
 0.0000006814     2     4    10     5
 -0.0206599777     2     4    10    10
 -0.0000001576     2     5     1     1
 0.0039082366     2     5     1     2
 -0.0000192904     2     5     1     4
 0.0001171915     2     5     1    10
 0.0000000030     2     5     3     1
 0.0127568240     2     5     3     2
 -0.0000001313     2     5     3     3
 0.0008140586     2     5     3     4
 0.0024330312     2     5     3    10
 -0.0921137855     2     5     4     1
 -0.0000074340     2     5     4     2
 0.0040516711     2     5     4     3
 0.0000000317     2     5     4     4
 0.0000000314     2     5     4    10
 0.0000000135     2     5     5     1
 -0.5708815450     2     5     5     2
 0.0000008101     2     5     5     3
 0.0195173930     2     5     5     4
 0.0009967959     2     5     5    10
 -0.0000001610     2     5     6     6
 0.0000529607     2     5     6     8
 -0.0000175590     2     5     6     9
 -0.0000001609     2     5     7     7
 -0.0000175590     2     5     7     8
 -0.0000529607     2     5     7     9
 0.0002432854     2     5     8     6
 -0.0000806607     2     5     8     7
 -0.0000001334     2     5     8     8
 -0.0000806607     2     5     9     6
 -0.0002432854     2     5     9     7
 -0.0000001334     2     5     9     9
 0.2782599595     2     5    10     1
 0.0000224548     2     5    10     2
 -0.0160478241     2     5    10     3
 -0.0000006814     2     5    10     4
 -0.0000003412     2     5    10    10
 0.0000537275     2     6     1     8
 -0.0000178132     2     6     1     9
 0.0010121886     2     6     3     8
 -0.0003355888     2     6     3     9
 -0.0000000065     2     6     4     8
 0.0000000021     2     6     4     9
 -0.0004399484     2     6     5     8
 0.0001458639     2     6     5     9
 0.0000000104     2     6     6     1
 -0.5678038337     2     6     6     2
 0.0000008187     2     6     6     3
 0.0206547669     2     6     6     4
 0.0000001610     2     6     6     5
 0.0019976501     2     6     6    10
 -0.0000000002     2     6     7     1
 0.2823849300     2     6     8     1
 0.0000227924     2     6     8     2
 -0.0161220738     2     6     8     3
 -0.0000006770     2     6     8     4
 -0.0002432854     2     6     8     5
 -0.0000002127     2     6     8    10
 -0.0936240909     2     6     9     1
 -0.0000075569     2     6     9     2
 0.0053452375     2     6     9     3
 0.0000002244     2     6     9     4
 0.0000806607     2     6     9     5
 0.0000000705     2     6     9    10
 -0.0000000048     2     6    10     8
 0.0000000016     2     6    10     9
 -0.0000178132     2     7     1     8
 -0.0000537275     2     7     1     9
 -0.0003355888     2     7     3     8
 -0.0010121886     2     7     3     9
 0.0000000021     2     7     4     8
 0.0000000065     2     7     4     9
 0.0001458639     2     7     5     8
 0.0004399484     2     7     5     9
 -0.0000000002     2     7     6     1
 0.0000000106     2     7     7     1
 -0.5678038337     2     7     7     2
 0.0000008187     2     7     7     3
 0.0206547669     2     7     7     4
 0.0000001609     2     7     7     5
 0.0019976500     2     7     7    10
 -0.0936240910     2     7     8     1
 -0.0000075566     2     7     8     2
 0.0053452375     2     7     8     3
 0.0000002245     2     7     8     4
 0.0000806607     2     7     8     5
 0.0000000706     2     7     8    10
 -0.2823849300     2     7     9     1
 -0.0000227924     2     7     9     2
 0.0161220738     2     7     9     3
 0.0000006769     2     7     9     4
 0.0002432854     2     7     9     5
 0.0000002127     2     7     9    10
 0.0000000016     2     7    10     8
 0.0000000048     2     7    10     9
 -0.0000537275     2     8     1     6
 0.0000178132     2     8     1     7
 -0.0010121886     2     8     3     6
 0.0003355888     2     8     3     7
 0.0000000065     2     8     4     6
 -0.0000000021     2     8     4     7
 0.0004399484     2     8     5     6
 -0.0001458639     2     8     5     7
 0.2823312869     2     8     6     1
 0.0000227924     2     8     6     2
 -0.0179854553     2     8     6     3
 -0.0000007109     2     8     6     4
 -0.0000529607     2     8     6     5
 -0.0000002204     2     8     6    10
 -0.0936063058     2     8     7     1
 -0.0000075566     2     8     7     2
 0.0059630373     2     8     7     3
 0.0000002357     2     8     7     4
 0.0000175590     2     8     7     5
 0.0000000731     2     8     7    10
 -0.0000000080     2     8     8     1
 -0.5520003640     2     8     8     2
 0.0000007111     2     8     8     3
 0.0189428799     2     8     8     4
 0.0000001334     2     8     8     5
 0.0028005289     2     8     8    10
 0.0000000048     2     8    10     6
 -0.0000000016     2     8    10     7
 0.0000178132     2     9     1     6
 0.0000537275     2     9     1     7
 0.0003355888     2     9     3     6
 0.0010121886     2     9     3     7
 -0.0000000021     2     9     4     6
 -0.0000000065     2     9     4     7
 -0.0001458639     2     9     5     6
 -0.0004399484     2     9     5     7
 -0.0936063056     2     9     6     1
 -0.0000075569     2     9     6     2
 0.0059630374     2     9     6     3
 0.0000002356     2     9     6     4
 0.0000175590     2     9     6     5
 0.0000000730     2     9     6    10
 -0.2823312869     2     9     7     1
 -0.0000227924     2     9     7     2
 0.0179854553     2     9     7     3
 0.0000007109     2     9     7     4
 0.0000529607     2     9     7     5
 0.0000002204     2     9     7    10
 -0.0000000079     2     9     9     1
 -0.5520003640     2     9     9     2
 0.0000007111     2     9     9     3
 0.0189428799     2     9     9     4
 0.0000001334     2     9     9     5
 0.0028005289     2     9     9    10
 -0.0000000016     2     9    10     6
 -0.0000000048     2     9    10     7
 0.0036273812     2    10     1     1
 0.0000001464     2    10     1     2
 0.0000164721     2    10     1     3
 -0.0001171915     2    10     1     5
 -0.0545907563     2    10     3     1
 -0.0000044048     2    10     3     2
 0.0033026520     2    10     3     3
 -0.0000000434     2    10     3     4
 -0.0024330312     2    10     3     5
 -0.0000000030     2    10     4     1
 -0.0398326917     2    10     4     2
 -0.0000001543     2    10     4     3
 -0.0008678420     2    10     4     4
 -0.0000000314     2    10     4     5
 0.2781444408     2    10     5     1
 0.0000224548     2    10     5     2
 -0.0195323304     2    10     5     3
 -0.0000007654     2    10     5     4
 -0.0009967959     2    10     5     5
 -0.0019976501     2    10     6     6
 0.0000002204     2    10     6     8
 -0.0000000730     2    10     6     9
 -0.0019976500     2    10     7     7
 -0.0000000731     2    10     7     8
 -0.0000002204     2    10     7     9
 0.0000002127     2    10     8     6
 -0.0000000706     2    10     8     7
 -0.0028005289     2    10     8     8
 -0.0000000705     2    10     9     6
 -0.0000002127     2    10     9     7
 -0.0028005289     2    10     9     9
 -0.0000000077     2    10    10     1
 -0.5803869790     2    10    10     2
 0.0000007370     2    10    10     3
 0.0206599777     2    10    10     4
 0.0000003412     2    10    10     5
 -0.0000000139     3     1     1     2
 -0.5727485228     3     1     1     3
 0.0000268748     3     1     1     4
 0.0127589677     3     1     1     5
 0.0000044100     3     1     1    10
 0.0003438745     3     1     2     2
 0.0000000343     3     1     2     3
 -0.3329261267     3     1     2     4
 0.0000000030     3     1     2     5
 -0.0545907563     3     1     2    10
 -0.0000115526     3     1     4     2
 -0.0000000125     3     1     4     3
 -0.0006467671     3     1     4     4
 0.0000001297     3     1     4     5
 0.0025554967     3     1     4    10
 0.0032501322     3     1     5     3
 0.0000001640     3     1     5     4
 -0.0201027011     3     1     5     5
 -0.0000006483     3     1     5    10
 -0.0203219581     3     1     6     6
 -0.0000006516     3     1     6     8
 0.0000002161     3     1     6     9
 -0.0203219582     3     1     7     7
 0.0000002160     3     1     7     8
 0.0000006516     3     1     7     9
 -0.0000007269     3     1     8     6
 0.0000002409     3     1     8     7
 -0.0176352376     3     1     8     8
 0.0000002410     3     1     9     6
 0.0000007269     3     1     9     7
 -0.0176352376     3     1     9     9
 0.0000164721     3     1    10     2
 0.0000001330     3     1    10     3
 0.0038293243     3     1    10     4
 -0.0000007893     3     1    10     5
 -0.0182749981     3     1    10    10
 0.0000000139     3     2     1     1
 0.0000000343     3     2     1     3
 -0.3329142046     3     2     1     4
 0.0000000030     3     2     1     5
 -0.0546077435     3     2     1    10
 -0.0003438745     3     2     2     1
 -0.5727352641     3     2     2     3
 -0.0000268739     3     2     2     4
 0.0127568240     3     2     2     5
 -0.0000044048     3     2     2    10
 0.0000115526     3     2     4     1
 0.0003119257     3     2     4     3
 -0.0000000261     3     2     4     4
 -0.0032095824     3     2     4     5
 0.0000001032     3     2     4    10
 0.0000001313     3     2     5     3
 -0.0040516711     3     2     5     4
 -0.0000008101     3     2     5     5
 0.0160478241     3     2     5    10
 -0.0000008187     3     2     6     6
 0.0161220738     3     2     6     8
 -0.0053452375     3     2     6     9
 -0.0000008187     3     2     7     7
 -0.0053452375     3     2     7     8
 -0.0161220738     3     2     7     9
 0.0179854553     3     2     8     6
 -0.0059630373     3     2     8     7
 -0.0000007111     3     2     8     8
 -0.0059630374     3     2     9     6
 -0.0179854553     3     2     9     7
 -0.0000007111     3     2     9     9
 -0.0000164721     3     2    10     1
 -0.0033026520     3     2    10     3
 0.0000001543     3     2    10     4
 0.0195323304     3     2    10     5
 -0.0000007370     3     2    10    10
 0.5727485228     3     3     1     1
 -0.0000000343     3     3     1     2
 0.0000000125     3     3     1     4
 -0.0032501322     3     3     1     5
 -0.0000001330     3     3     1    10
 -0.0000000343     3     3     2     1
 0.5727352641     3     3     2     2
 -0.0003119257     3     3     2     4
 -0.0000001313     3     3     2     5
 0.0033026520     3     3     2    10
 0.0000000125     3     3     4     1
 -0.0003119257     3     3     4     2
 0.2383510635     3     3     4     4
 -0.0000000043     3     3     4     5
 0.0122120774     3     3     4    10
 -0.0032501322     3     3     5     1
 -0.0000001313     3     3     5     2
 -0.0000000043     3     3     5     4
 0.3769082662     3     3     5     5
 0.0000000158     3     3     5    10
 0.3769159064     3     3     6     6
 0.0000000136     3     3     6     8
 -0.0000000045     3     3     6     9
 0.3769159063     3     3     7     7
 -0.0000000045     3     3     7     8
 -0.0000000136     3     3     7     9
 0.0000000136     3     3     8     6
 -0.0000000045     3     3     8     7
 0.3824113347     3     3     8     8
 0.0000000001     3     3     8     9
 -0.0000000045     3     3     9     6
 -0.0000000136     3     3     9     7
 0.0000000001     3     3     9     8
 0.3824113346     3     3     9     9
 -0.0000001330     3     3    10     1
 0.0033026520     3     3    10     2
 0.0122120774     3     3    10     4