&FCI NORB= 10,NELEC= 14,MS2=0,
 ORBSYM=1,1,1,1,1,1,1,1,1,1
 ISYM=1,
&END
 0.2034920065     1     1     2     2
 -0.0000000019     1     1     2     3
 0.0001829416     1     1     2     4
 -0.0000000359     1     1     2     5
 0.0025247293     1     1     2    10
 -0.0000000019     1     1     3     2
 0.5540251587     1     1     3     3
 -0.0000089597     1     1     3     4
 0.0081631923     1     1     3     5
 0.0000007833     1     1     3    10
 0.0001829416     1     1     4     2
 -0.0000089597     1     1     4     3
 0.5609532050     1     1     4     4
 0.0000014456     1     1     4     5
 -0.0283383332     1     1     4    10
 -0.0000000359     1     1     5     2
 0.0081631923     1     1     5     3
 0.0000014456     1     1     5     4
 0.5518115969     1     1     5     5
 0.0000077503     1     1     5    10
 0.5572150654     1     1     6     6
 0.0000000004     1     1     6     7
 0.0000069206     1     1     6     8
 -0.0000041407     1     1     6     9
 0.0000000004     1     1     7     6
 0.5572150656     1     1     7     7
 -0.0000041406     1     1     7     8
 -0.0000069207     1     1     7     9
 0.0000069206     1     1     8     6
 -0.0000041406     1     1     8     7
 0.5345634222     1     1     8     8
 -0.0000041407     1     1     9     6
 -0.0000069207     1     1     9     7
 0.5345634222     1     1     9     9
 0.0025247293     1     1    10     2
 0.0000007833     1     1    10     3
 -0.0283383332     1     1    10     4
 0.0000077503     1     1    10     5
 0.5567436942     1     1    10    10
 -0.2034920065     1     2     2     1
 0.0001478640     1     2     2     3
 0.0000000023     1     2     2     4
 0.0028377161     1     2     2     5
 0.0000000320     1     2     2    10
 0.0000000019     1     2     3     1
 -0.0000000150     1     2     3     3
 0.3541958522     1     2     3     4
 0.0000000013     1     2     3     5
 -0.0309638098     1     2     3    10
 -0.0001829416     1     2     4     1
 0.3542079712     1     2     4     3
 0.0000000149     1     2     4     4
 -0.0571499867     1     2     4     5
 -0.0000000011     1     2     4    10
 0.0000000359     1     2     5     1
 0.0000000013     1     2     5     3
 -0.0571593745     1     2     5     4
 -0.0000000007     1     2     5     5
 -0.3064929565     1     2     5    10
 -0.0000000032     1     2     6     6
 -0.0000000001     1     2     6     7
 -0.2736302485     1     2     6     8
 0.1637129730     1     2     6     9
 -0.0000000001     1     2     7     6
 -0.0000000033     1     2     7     7
 0.1637129726     1     2     7     8
 0.2736302490     1     2     7     9
 -0.2736021174     1     2     8     6
 0.1636961417     1     2     8     7
 0.0000000018     1     2     8     8
 0.1636961421     1     2     9     6
 0.2736021179     1     2     9     7
 0.0000000018     1     2     9     9
 -0.0025247293     1     2    10     1
 -0.0309535159     1     2    10     3
 -0.0000000011     1     2    10     4
 -0.3064234531     1     2    10     5
 0.0000000027     1     2    10    10
 0.0000000019     1     3     2     1
 -0.0001478640     1     3     2     2
 -0.0000120365     1     3     2     4
 -0.0000099723     1     3     2    10
 -0.5540251587     1     3     3     1
 0.0000000150     1     3     3     2
 0.0000000020     1     3     3     4
 0.0018137058     1     3     3     5
 0.0000000230     1     3     3    10
 0.0000089597     1     3     4     1
 -0.3542079712     1     3     4     2
 0.0003645142     1     3     4     4
 0.0000000348     1     3     4     5
 0.0025653486     1     3     4    10
 -0.0081631923     1     3     5     1
 -0.0000000013     1     3     5     2
 0.0000000204     1     3     5     4
 0.0203375627     1     3     5     5
 0.0000002481     1     3     5    10
 0.0211264423     1     3     6     6
 0.0000002098     1     3     6     8
 -0.0000001255     1     3     6     9
 0.0211264423     1     3     7     7
 -0.0000001255     1     3     7     8
 -0.0000002097     1     3     7     9
 0.0000001928     1     3     8     6
 -0.0000001154     1     3     8     7
 0.0176808660     1     3     8     8
 -0.0000001153     1     3     9     6
 -0.0000001928     1     3     9     7
 0.0176808660     1     3     9     9
 -0.0000007833     1     3    10     1
 0.0309535159     1     3    10     2
 0.0014352395     1     3    10     4
 0.0000002156     1     3    10     5
 0.0185647408     1     3    10    10
 -0.0001829416     1     4     2     1
 -0.0000000023     1     4     2     2
 0.0000120365     1     4     2     3
 0.0000089234     1     4     2     5
 0.0000089597     1     4     3     1
 -0.3541958522     1     4     3     2
 -0.0000000020     1     4     3     3
 0.0000000142     1     4     3     5
 0.0010619404     1     4     3    10
 -0.5609532050     1     4     4     1
 -0.0000000149     1     4     4     2
 -0.0003645142     1     4     4     3
 -0.0002294693     1     4     4     5
 -0.0000000033     1     4     4    10
 -0.0000014456     1     4     5     1
 0.0571593745     1     4     5     2
 -0.0000000204     1     4     5     3
 -0.0000002518     1     4     5     5
 -0.0190949835     1     4     5    10
 -0.0000002691     1     4     6     6
 -0.0164208408     1     4     6     8
 0.0098245888     1     4     6     9
 -0.0000002691     1     4     7     7
 0.0098245888     1     4     7     8
 0.0164208408     1     4     7     9
 -0.0156041744     1     4     8     6
 0.0093359773     1     4     8     7
 -0.0000002327     1     4     8     8
 0.0093359773     1     4     9     6
 0.0156041745     1     4     9     7
 -0.0000002327     1     4     9     9
 0.0283383332     1     4    10     1
 0.0000000011     1     4    10     2
 -0.0014352395     1     4    10     3
 -0.0176929319     1     4    10     5
 -0.0000002505     1     4    10    10
 0.0000000359     1     5     2     1
 -0.0028377161     1     5     2     2
 -0.0000089234     1     5     2     4
 -0.0000700858     1     5     2    10
 -0.0081631923     1     5     3     1
 -0.0000000013     1     5     3     2
 -0.0018137058     1     5     3     3
 -0.0000000142     1     5     3     4
 0.0000000208     1     5     3    10
 -0.0000014456     1     5     4     1
 0.0571499867     1     5     4     2
 -0.0000000348     1     5     4     3
 0.0002294693     1     5     4     4
 -0.0003089759     1     5     4    10
 -0.5518115969     1     5     5     1
 0.0000000007     1     5     5     2
 -0.0203375627     1     5     5     3
 0.0000002518     1     5     5     4
 -0.0000000026     1     5     5    10
 -0.0024361416     1     5     6     6
 0.0000000034     1     5     6     8
 -0.0000000020     1     5     6     9
 -0.0024361416     1     5     7     7
 -0.0000000020     1     5     7     8
 -0.0000000034     1     5     7     9
 0.0000000059     1     5     8     6
 -0.0000000036     1     5     8     7
 -0.0019642845     1     5     8     8
 -0.0000000036     1     5     9     6
 -0.0000000059     1     5     9     7
 -0.0019642845     1     5     9     9
 -0.0000077503     1     5    10     1
 0.3064234531     1     5    10     2
 -0.0000002156     1     5    10     3
 0.0176929319     1     5    10     4
 -0.0055171242     1     5    10    10
 -0.0000291559     1     6     2     8
 0.0000174439     1     6     2     9
 0.0000000079     1     6     3     8
 -0.0000000048     1     6     3     9
 -0.0000234712     1     6     4     8
 0.0000140428     1     6     4     9
 0.0000000014     1     6     5     8
 -0.0000000009     1     6     5     9
 -0.5572150654     1     6     6     1
 0.0000000032     1     6     6     2
 -0.0211264423     1     6     6     3
 0.0000002691     1     6     6     4
 0.0024361416     1     6     6     5
 -0.0000000157     1     6     6    10
 -0.0000000004     1     6     7     1
 0.0000000001     1     6     7     2
 -0.0000069206     1     6     8     1
 0.2736021174     1     6     8     2
 -0.0000001928     1     6     8     3
 0.0156041744     1     6     8     4
 -0.0000000059     1     6     8     5
 -0.0032104242     1     6     8    10
 0.0000041407     1     6     9     1
 -0.1636961421     1     6     9     2
 0.0000001153     1     6     9     3
 -0.0093359773     1     6     9     4
 0.0000000036     1     6     9     5
 0.0019207968     1     6     9    10
 -0.0000962350     1     6    10     8
 0.0000575774     1     6    10     9
 0.0000174439     1     7     2     8
 0.0000291559     1     7     2     9
 -0.0000000048     1     7     3     8
 -0.0000000079     1     7     3     9
 0.0000140428     1     7     4     8
 0.0000234712     1     7     4     9
 -0.0000000009     1     7     5     8
 -0.0000000014     1     7     5     9
 -0.0000000004     1     7     6     1
 0.0000000001     1     7     6     2
 -0.5572150656     1     7     7     1
 0.0000000033     1     7     7     2
 -0.0211264423     1     7     7     3
 0.0000002691     1     7     7     4
 0.0024361416     1     7     7     5
 -0.0000000157     1     7     7    10
 0.0000041406     1     7     8     1
 -0.1636961417     1     7     8     2
 0.0000001154     1     7     8     3
 -0.0093359773     1     7     8     4
 0.0000000036     1     7     8     5
 0.0019207968     1     7     8    10
 0.0000069207     1     7     9     1
 -0.2736021179     1     7     9     2
 0.0000001928     1     7     9     3
 -0.0156041745     1     7     9     4
 0.0000000059     1     7     9     5
 0.0032104242     1     7     9    10
 0.0000575775     1     7    10     8
 0.0000962350     1     7    10     9
 0.0000291559     1     8     2     6
 -0.0000174439     1     8     2     7
 -0.0000000079     1     8     3     6
 0.0000000048     1     8     3     7
 0.0000234712     1     8     4     6
 -0.0000140428     1     8     4     7
 -0.0000000014     1     8     5     6
 0.0000000009     1     8     5     7
 -0.0000069206     1     8     6     1
 0.2736302485     1     8     6     2
 -0.0000002098     1     8     6     3
 0.0164208408     1     8     6     4
 -0.0000000034     1     8     6     5
 -0.0033523715     1     8     6    10
 0.0000041406     1     8     7     1
 -0.1637129726     1     8     7     2
 0.0000001255     1     8     7     3
 -0.0098245888     1     8     7     4
 0.0000000020     1     8     7     5
 0.0020057238     1     8     7    10
 -0.5345634222     1     8     8     1
 -0.0000000018     1     8     8     2
 -0.0176808660     1     8     8     3
 0.0000002327     1     8     8     4
 0.0019642845     1     8     8     5
 -0.0000000191     1     8     8    10
 0.0000962350     1     8    10     6
 -0.0000575775     1     8    10     7
 -0.0000174439     1     9     2     6
 -0.0000291559     1     9     2     7
 0.0000000048     1     9     3     6
 0.0000000079     1     9     3     7
 -0.0000140428     1     9     4     6
 -0.0000234712     1     9     4     7
 0.0000000009     1     9     5     6
 0.0000000014     1     9     5     7
 0.0000041407     1     9     6     1
 -0.1637129730     1     9     6     2
 0.0000001255     1     9     6     3
 -0.0098245888     1     9     6     4
 0.0000000020     1     9     6     5
 0.0020057238     1     9     6    10
 0.0000069207     1     9     7     1
 -0.2736302490     1     9     7     2
 0.0000002097     1     9     7     3
 -0.0164208408     1     9     7     4
 0.0000000034     1     9     7     5
 0.0033523715     1     9     7    10
 -0.5345634222     1     9     9     1
 -0.0000000018     1     9     9     2
 -0.0176808660     1     9     9     3
 0.0000002327     1     9     9     4
 0.0019642845     1     9     9     5
 -0.0000000191     1     9     9    10
 -0.0000575774     1     9    10     6
 -0.0000962350     1     9    10     7
 -0.0025247293     1    10     2     1
 -0.0000000320     1    10     2     2
 0.0000099723     1    10     2     3
 0.0000700858     1    10     2     5
 -0.0000007833     1    10     3     1
 0.0309638098     1    10     3     2
 -0.0000000230     1    10     3     3
 -0.0010619404     1    10     3     4
 -0.0000000208     1    10     3     5
 0.0283383332     1    10     4     1
 0.0000000011     1    10     4     2
 -0.0025653486     1    10     4     3
 0.0000000033     1    10     4     4
 0.0003089759     1    10     4     5
 -0.0000077503     1    10     5     1
 0.3064929565     1    10     5     2
 -0.0000002481     1    10     5     3
 0.0190949835     1    10     5     4
 0.0000000026     1    10     5     5
 0.0000000157     1    10     6     6
 0.0033523715     1    10     6     8
 -0.0020057238     1    10     6     9
 0.0000000157     1    10     7     7
 -0.0020057238     1    10     7     8
 -0.0033523715     1    10     7     9
 0.0032104242     1    10     8     6
 -0.0019207968     1    10     8     7
 0.0000000191     1    10     8     8
 -0.0019207968     1    10     9     6
 -0.0032104242     1    10     9     7
 0.0000000191     1    10     9     9
 -0.5567436942     1    10    10     1
 -0.0000000027     1    10    10     2
 -0.0185647408     1    10    10     3
 0.0000002505     1    10    10     4
 0.0055171242     1    10    10     5
 -0.2034920065     2     1     1     2
 0.0000000019     2     1     1     3
 -0.0001829416     2     1     1     4
 0.0000000359     2     1     1     5
 -0.0025247293     2     1     1    10
 0.0001478640     2     1     3     2
 -0.0000000150     2     1     3     3
 0.3542079712     2     1     3     4
 0.0000000013     2     1     3     5
 -0.0309535159     2     1     3    10
 0.0000000023     2     1     4     2
 0.3541958522     2     1     4     3
 0.0000000149     2     1     4     4
 -0.0571593745     2     1     4     5
 -0.0000000011     2     1     4    10
 0.0028377161     2     1     5     2
 0.0000000013     2     1     5     3
 -0.0571499867     2     1     5     4
 -0.0000000007     2     1     5     5
 -0.3064234531     2     1     5    10
 -0.0000000032     2     1     6     6
 -0.0000000001     2     1     6     7
 -0.2736021174     2     1     6     8
 0.1636961421     2     1     6     9
 -0.0000000001     2     1     7     6
 -0.0000000033     2     1     7     7
 0.1636961417     2     1     7     8
 0.2736021179     2     1     7     9
 -0.2736302485     2     1     8     6
 0.1637129726     2     1     8     7
 0.0000000018     2     1     8     8
 0.1637129730     2     1     9     6
 0.2736302490     2     1     9     7
 0.0000000018     2     1     9     9
 0.0000000320     2     1    10     2
 -0.0309638098     2     1    10     3
 -0.0000000011     2     1    10     4
 -0.3064929565     2     1    10     5
 0.0000000027     2     1    10    10
 0.2034920065     2     2     1     1
 -0.0001478640     2     2     1     3
 -0.0000000023     2     2     1     4
 -0.0028377161     2     2     1     5
 -0.0000000320     2     2     1    10
 -0.0001478640     2     2     3     1
 0.5540122031     2     2     3     3
 0.0000089591     2     2     3     4
 0.0081591606     2     2     3     5
 -0.0000007829     2     2     3    10
 -0.0000000023     2     2     4     1
 0.0000089591     2     2     4     3
 0.5609645552     2     2     4     4
 -0.0000014458     2     2     4     5
 -0.0283326214     2     2     4    10
 -0.0028377161     2     2     5     1
 0.0081591606     2     2     5     3
 -0.0000014458     2     2     5     4
 0.5518876574     2     2     5     5
 -0.0000077532     2     2     5    10
 0.5572559565     2     2     6     6
 0.0000000004     2     2     6     7
 -0.0000069215     2     2     6     8
 0.0000041410     2     2     6     9
 0.0000000004     2     2     7     6
 0.5572559568     2     2     7     7
 0.0000041412     2     2     7     8
 0.0000069213     2     2     7     9
 -0.0000069215     2     2     8     6
 0.0000041412     2     2     8     7
 0.5345365647     2     2     8     8
 0.0000041410     2     2     9     6
 0.0000069213     2     2     9     7
 0.5345365647     2     2     9     9
 -0.0000000320     2     2    10     1
 -0.0000007829     2     2    10     3
 -0.0283326214     2     2    10     4
 -0.0000077532     2     2    10     5
 0.5566761071     2     2    10    10
 -0.0000000019     2     3     1     1
 0.0001478640     2     3     1     2
 0.0000120365     2     3     1     4
 0.0000099723     2     3     1    10
 0.0000000150     2     3     3     1
 -0.5540122031     2     3     3     2
 -0.0001600458     2     3     3     4
 0.0000000231     2     3     3     5
 -0.0018301710     2     3     3    10
 -0.3541958522     2     3     4     1
 -0.0000089591     2     3     4     2
 0.0000000046     2     3     4     4
 -0.0027513980     2     3     4     5
 0.0000000324     2     3     4    10
 -0.0000000013     2     3     5     1
 -0.0081591606     2     3     5     2
 -0.0016167407     2     3     5     4
 0.0000002568     2     3     5     5
 -0.0195870303     2     3     5    10
 0.0000002665     2     3     6     6
 -0.0165553315     2     3     6     8
 0.0099050545     2     3     6     9
 0.0000002665     2     3     7     7
 0.0099050545     2     3     7     8
 0.0165553315     2     3     7     9
 -0.0152166640     2     3     8     6
 0.0091041297     2     3     8     7
 0.0000002233     2     3     8     8
 0.0091041297     2     3     9     6
 0.0152166640     2     3     9     7
 0.0000002232     2     3     9     9
 0.0309638098     2     3    10     1
 0.0000007829     2     3    10     2
 0.0000000181     2     3    10     4
 -0.0170126643     2     3    10     5
 0.0000002345     2     3    10    10
 0.0001829416     2     4     1     1
 0.0000000023     2     4     1     2
 -0.0000120365     2     4     1     3
 -0.0000089234     2     4     1     5
 -0.3542079712     2     4     3     1
 -0.0000089591     2     4     3     2
 0.0001600458     2     4     3     3
 -0.0011222319     2     4     3     5
 0.0000000133     2     4     3    10
 -0.0000000149     2     4     4     1
 -0.5609645552     2     4     4     2
 -0.0000000046     2     4     4     3
 -0.0000000030     2     4     4     5
 0.0002655509     2     4     4    10
 0.0571499867     2     4     5     1
 0.0000014458     2     4     5     2
 0.0016167407     2     4     5     3
 0.0199474617     2     4     5     5
 -0.0000002419     2     4     5    10
 0.0212959230     2     4     6     6
 -0.0000002080     2     4     6     8
 0.0000001245     2     4     6     9
 0.0212959230     2     4     7     7
 0.0000001245     2     4     7     8
 0.0000002080     2     4     7     9
 -0.0000001977     2     4     8     6
 0.0000001183     2     4     8     7
 0.0184354011     2     4     8     8
 0.0000001183     2     4     9     6
 0.0000001976     2     4     9     7
 0.0184354011     2     4     9     9
 0.0000000011     2     4    10     1
 0.0283326214     2     4    10     2
 -0.0000000181     2     4    10     3
 -0.0000002242     2     4    10     5
 0.0198441384     2     4    10    10
 -0.0000000359     2     5     1     1
 0.0028377161     2     5     1     2
 0.0000089234     2     5     1     4
 0.0000700858     2     5     1    10
 -0.0000000013     2     5     3     1
 -0.0081591606     2     5     3     2
 -0.0000000231     2     5     3     3
 0.0011222319     2     5     3     4
 -0.0016475448     2     5     3    10
 0.0571593745     2     5     4     1
 0.0000014458     2     5     4     2
 0.0027513980     2     5     4     3
 0.0000000030     2     5     4     4
 -0.0000000039     2     5     4    10
 0.0000000007     2     5     5     1
 -0.5518876574     2     5     5     2
 -0.0000002568     2     5     5     3
 -0.0199474617     2     5     5     4
 0.0002045187     2     5     5    10
 -0.0000000308     2     5     6     6
 -0.0002673436     2     5     6     8
 0.0001599517     2     5     6     9
 -0.0000000308     2     5     7     7
 0.0001599517     2     5     7     8
 0.0002673436     2     5     7     9
 -0.0004646825     2     5     8     6
 0.0002780195     2     5     8     7
 -0.0000000248     2     5     8     8
 0.0002780195     2     5     9     6
 0.0004646825     2     5     9     7
 -0.0000000249     2     5     9     9
 0.3064929565     2     5    10     1
 0.0000077532     2     5    10     2
 0.0170126643     2     5    10     3
 0.0000002242     2     5    10     4
 -0.0000000698     2     5    10    10
 0.0000291559     2     6     1     8
 -0.0000174439     2     6     1     9
 -0.0006236999     2     6     3     8
 0.0003731596     2     6     3     9
 -0.0000000003     2     6     4     8
 0.0000000002     2     6     4     9
 -0.0001126584     2     6     5     8
 0.0000674035     2     6     5     9
 0.0000000032     2     6     6     1
 -0.5572559565     2     6     6     2
 -0.0000002665     2     6     6     3
 -0.0212959230     2     6     6     4
 0.0000000308     2     6     6     5
 0.0012400970     2     6     6    10
 0.0000000001     2     6     7     1
 -0.0000000004     2     6     7     2
 0.2736302485     2     6     8     1
 0.0000069215     2     6     8     2
 0.0152166640     2     6     8     3
 0.0000001977     2     6     8     4
 0.0004646825     2     6     8     5
 -0.0000000406     2     6     8    10
 -0.1637129730     2     6     9     1
 -0.0000041410     2     6     9     2
 -0.0091041297     2     6     9     3
 -0.0000001183     2     6     9     4
 -0.0002780195     2     6     9     5
 0.0000000243     2     6     9    10
 -0.0000000013     2     6    10     8
 0.0000000008     2     6    10     9
 -0.0000174439     2     7     1     8
 -0.0000291559     2     7     1     9
 0.0003731596     2     7     3     8
 0.0006236998     2     7     3     9
 0.0000000002     2     7     4     8
 0.0000000003     2     7     4     9
 0.0000674035     2     7     5     8
 0.0001126584     2     7     5     9
 0.0000000001     2     7     6     1
 -0.0000000004     2     7     6     2
 0.0000000033     2     7     7     1
 -0.5572559568     2     7     7     2
 -0.0000002665     2     7     7     3
 -0.0212959230     2     7     7     4
 0.0000000308     2     7     7     5
 0.0012400970     2     7     7    10
 -0.1637129726     2     7     8     1
 -0.0000041412     2     7     8     2
 -0.0091041297     2     7     8     3
 -0.0000001183     2     7     8     4
 -0.0002780195     2     7     8     5
 0.0000000243     2     7     8    10
 -0.2736302490     2     7     9     1
 -0.0000069213     2     7     9     2
 -0.0152166640     2     7     9     3
 -0.0000001976     2     7     9     4
 -0.0004646825     2     7     9     5
 0.0000000406     2     7     9    10
 0.0000000008     2     7    10     8
 0.0000000013     2     7    10     9
 -0.0000291559     2     8     1     6
 0.0000174439     2     8     1     7
 0.0006236999     2     8     3     6
 -0.0003731596     2     8     3     7
 0.0000000003     2     8     4     6
 -0.0000000002     2     8     4     7
 0.0001126584     2     8     5     6
 -0.0000674035     2     8     5     7
 0.2736021174     2     8     6     1
 0.0000069215     2     8     6     2
 0.0165553315     2     8     6     3
 0.0000002080     2     8     6     4
 0.0002673436     2     8     6     5
 -0.0000000424     2     8     6    10
 -0.1636961417     2     8     7     1
 -0.0000041412     2     8     7     2
 -0.0099050545     2     8     7     3
 -0.0000001245     2     8     7     4
 -0.0001599517     2     8     7     5
 0.0000000254     2     8     7    10
 -0.0000000018     2     8     8     1
 -0.5345365647     2     8     8     2
 -0.0000002233     2     8     8     3
 -0.0184354011     2     8     8     4
 0.0000000248     2     8     8     5
 0.0015128361     2     8     8    10
 0.0000000013     2     8    10     6
 -0.0000000008     2     8    10     7
 0.0000174439     2     9     1     6
 0.0000291559     2     9     1     7
 -0.0003731596     2     9     3     6
 -0.0006236998     2     9     3     7
 -0.0000000002     2     9     4     6
 -0.0000000003     2     9     4     7
 -0.0000674035     2     9     5     6
 -0.0001126584     2     9     5     7
 -0.1636961421     2     9     6     1
 -0.0000041410     2     9     6     2
 -0.0099050545     2     9     6     3
 -0.0000001245     2     9     6     4
 -0.0001599517     2     9     6     5
 0.0000000254     2     9     6    10
 -0.2736021179     2     9     7     1
 -0.0000069213     2     9     7     2
 -0.0165553315     2     9     7     3
 -0.0000002080     2     9     7     4
 -0.0002673436     2     9     7     5
 0.0000000424     2     9     7    10
 -0.0000000018     2     9     9     1
 -0.5345365647     2     9     9     2
 -0.0000002232     2     9     9     3
 -0.0184354011     2     9     9     4
 0.0000000249     2     9     9     5
 0.0015128361     2     9     9    10
 -0.0000000008     2     9    10     6
 -0.0000000013     2     9    10     7
 0.0025247293     2    10     1     1
 0.0000000320     2    10     1     2
 -0.0000099723     2    10     1     3
 -0.0000700858     2    10     1     5
 0.0309535159     2    10     3     1
 0.0000007829     2    10     3     2
 0.0018301710     2    10     3     3
 -0.0000000133     2    10     3     4
 0.0016475448     2    10     3     5
 0.0000000011     2    10     4     1
 0.0283326214     2    10     4     2
 -0.0000000324     2    10     4     3
 -0.0002655509     2    10     4     4
 0.0000000039     2    10     4     5
 0.3064234531     2    10     5     1
 0.0000077532     2    10     5     2
 0.0195870303     2    10     5     3
 0.0000002419     2    10     5     4
 -0.0002045187     2    10     5     5
 -0.0012400970     2    10     6     6
 0.0000000424     2    10     6     8
 -0.0000000254     2    10     6     9
 -0.0012400970     2    10     7     7
 -0.0000000254     2    10     7     8
 -0.0000000424     2    10     7     9
 0.0000000406     2    10     8     6
 -0.0000000243     2    10     8     7
 -0.0015128361     2    10     8     8
 -0.0000000243     2    10     9     6
 -0.0000000406     2    10     9     7
 -0.0015128361     2    10     9     9
 -0.0000000027     2    10    10     1
 -0.5566761071     2    10    10     2
 -0.0000002345     2    10    10     3
 -0.0198441384     2    10    10     4
 0.0000000698     2    10    10     5
 0.0000000019     3     1     1     2
 -0.5540251587     3     1     1     3
 0.0000089597     3     1     1     4
 -0.0081631923     3     1     1     5
 -0.0000007833     3     1     1    10
 -0.0001478640     3     1     2     2
 0.0000000150     3     1     2     3
 -0.3542079712     3     1     2     4
 -0.0000000013     3     1     2     5
 0.0309535159     3     1     2    10
 -0.0000120365     3     1     4     2
 0.0000000020     3     1     4     3
 0.0003645142     3     1     4     4
 0.0000000204     3     1     4     5
 0.0014352395     3     1     4    10
 0.0018137058     3     1     5     3
 0.0000000348     3     1     5     4
 0.0203375627     3     1     5     5
 0.0000002156     3     1     5    10
 0.0211264423     3     1     6     6
 0.0000001928     3     1     6     8
 -0.0000001153     3     1     6     9
 0.0211264423     3     1     7     7
 -0.0000001154     3     1     7     8
 -0.0000001928     3     1     7     9
 0.0000002098     3     1     8     6
 -0.0000001255     3     1     8     7
 0.0176808660     3     1     8     8
 -0.0000001255     3     1     9     6
 -0.0000002097     3     1     9     7
 0.0176808660     3     1     9     9
 -0.0000099723     3     1    10     2
 0.0000000230     3     1    10     3
 0.0025653486     3     1    10     4
 0.0000002481     3     1    10     5
 0.0185647408     3     1    10    10
 -0.0000000019     3     2     1     1
 0.0000000150     3     2     1     3
 -0.3541958522     3     2     1     4
 -0.0000000013     3     2     1     5
 0.0309638098     3     2     1    10
 0.0001478640     3     2     2     1
 -0.5540122031     3     2     2     3
 -0.0000089591     3     2     2     4
 -0.0081591606     3     2     2     5
 0.0000007829     3     2     2    10
 0.0000120365     3     2     4     1
 -0.0001600458     3     2     4     3
 0.0000000046     3     2     4     4
 -0.0016167407     3     2     4     5
 0.0000000181     3     2     4    10
 0.0000000231     3     2     5     3
 -0.0027513980     3     2     5     4
 0.0000002568     3     2     5     5
 -0.0170126643     3     2     5    10
 0.0000002665     3     2     6     6
 -0.0152166640     3     2     6     8
 0.0091041297     3     2     6     9
 0.0000002665     3     2     7     7
 0.0091041297     3     2     7     8
 0.0152166640     3     2     7     9
 -0.0165553315     3     2     8     6
 0.0099050545     3     2     8     7
 0.0000002233     3     2     8     8
 0.0099050545     3     2     9     6
 0.0165553315     3     2     9     7
 0.0000002232     3     2     9     9
 0.0000099723     3     2    10     1
 -0.0018301710     3     2    10     3
 0.0000000324     3     2    10     4
 -0.0195870303     3     2    10     5
 0.0000002345     3     2    10    10
 0.5540251587     3     3     1     1
 -0.0000000150     3     3     1     2
 -0.0000000020     3     3     1     4
 -0.0018137058     3     3     1     5
 -0.0000000230     3     3     1    10
 -0.0000000150     3     3     2     1
 0.5540122031     3     3     2     2
 0.0001600458     3     3     2     4
 -0.0000000231     3     3     2     5
 0.0018301710     3     3     2    10
 -0.0000000020     3     3     4     1
 0.0001600458     3     3     4     2
 0.2002523978     3     3     4     4
 0.0000000008     3     3     4     5
 -0.0123983515     3     3     4    10
 -0.0018137058     3     3     5     1
 -0.0000000231     3     3     5     2
 0.0000000008     3     3     5     4
 0.3595625063     3     3     5     5
 0.0000000056     3     3     5    10
 0.3615796837     3     3     6     6
 0.0000000002     3     3     6     7
 0.0000000054     3     3     6     8
 -0.0000000032     3     3     6     9
 0.0000000002     3     3     7     6
 0.3615796838     3     3     7     7
 -0.0000000033     3     3     7     8
 -0.0000000054     3     3     7     9
 0.0000000054     3     3     8     6