&FCI NORB= 10,NELEC= 14,MS2=0,
 ORBSYM=1,1,1,1,1,1,1,1,1,1
 ISYM=1,
&END
 0.1824302328     1     1     2     2
 -0.0000000001     1     1     2     3
 0.0000976769     1     1     2     4
 0.0000000030     1     1     2     5
 -0.0019949234     1     1     2    10
 -0.0000000001     1     1     3     2
 0.5442508006     1     1     3     3
 -0.0000009233     1     1     3     4
 -0.0071761467     1     1     3     5
 -0.0000000533     1     1     3    10
 0.0000976769     1     1     4     2
 -0.0000009233     1     1     4     3
 0.5494189966     1     1     4     4
 -0.0000001037     1     1     4     5
 0.0218567180     1     1     4    10
 0.0000000030     1     1     5     2
 -0.0071761467     1     1     5     3
 -0.0000001037     1     1     5     4
 0.5437641816     1     1     5     5
 0.0000008166     1     1     5    10
 0.5492610524     1     1     6     6
 0.0000007525     1     1     6     8
 0.0000003599     1     1     6     9
 0.5492610524     1     1     7     7
 -0.0000003598     1     1     7     8
 0.0000007527     1     1     7     9
 0.0000007525     1     1     8     6
 -0.0000003598     1     1     8     7
 0.5234284745     1     1     8     8
 0.0000003599     1     1     9     6
 0.0000007527     1     1     9     7
 0.5234284745     1     1     9     9
 -0.0019949234     1     1    10     2
 -0.0000000533     1     1    10     3
 0.0218567180     1     1    10     4
 0.0000008166     1     1    10     5
 0.5408329778     1     1    10    10
 -0.1824302328     1     2     2     1
 0.0000977915     1     2     2     3
 0.0000000001     1     2     2     4
 -0.0023103956     1     2     2     5
 -0.0000000026     1     2     2    10
 0.0000000001     1     2     3     1
 -0.0000000019     1     2     3     3
 0.3650512176     1     2     3     4
 0.0210141170     1     2     3    10
 -0.0000976769     1     2     4     1
 0.3650637975     1     2     4     3
 0.0000000017     1     2     4     4
 0.0410068235     1     2     4     5
 0.0000000002     1     2     4    10
 -0.0000000030     1     2     5     1
 0.0410127826     1     2     5     4
 -0.0000000001     1     2     5     5
 -0.3228620854     1     2     5    10
 -0.0000000004     1     2     6     6
 -0.2975456245     1     2     6     8
 -0.1422866721     1     2     6     9
 -0.0000000003     1     2     7     7
 0.1422866721     1     2     7     8
 -0.2975456246     1     2     7     9
 -0.2975246261     1     2     8     6
 0.1422766306     1     2     8     7
 -0.0000000002     1     2     8     8
 0.0000000001     1     2     8     9
 -0.1422766307     1     2     9     6
 -0.2975246261     1     2     9     7
 0.0000000001     1     2     9     8
 0.0000000007     1     2     9     9
 0.0019949234     1     2    10     1
 0.0210063798     1     2    10     3
 0.0000000002     1     2    10     4
 -0.3228121929     1     2    10     5
 -0.0000000001     1     2    10    10
 0.0000000001     1     3     2     1
 -0.0000977915     1     3     2     2
 -0.0000125175     1     3     2     4
 0.0000075218     1     3     2    10
 -0.5442508006     1     3     3     1
 0.0000000019     1     3     3     2
 0.0000000002     1     3     3     4
 -0.0012790719     1     3     3     5
 -0.0000000016     1     3     3    10
 0.0000009233     1     3     4     1
 -0.3650637975     1     3     4     2
 0.0002852538     1     3     4     4
 -0.0000000026     1     3     4     5
 -0.0019722236     1     3     4    10
 0.0071761467     1     3     5     1
 -0.0000000012     1     3     5     4
 0.0206869627     1     3     5     5
 0.0000000250     1     3     5    10
 0.0213688279     1     3     6     6
 0.0000000222     1     3     6     8
 0.0000000106     1     3     6     9
 0.0213688279     1     3     7     7
 -0.0000000105     1     3     7     8
 0.0000000221     1     3     7     9
 0.0000000205     1     3     8     6
 -0.0000000098     1     3     8     7
 0.0176260852     1     3     8     8
 0.0000000099     1     3     9     6
 0.0000000205     1     3     9     7
 0.0176260852     1     3     9     9
 0.0000000533     1     3    10     1
 -0.0210063798     1     3    10     2
 -0.0010222773     1     3    10     4
 0.0000000223     1     3    10     5
 0.0183811522     1     3    10    10
 -0.0000976769     1     4     2     1
 -0.0000000001     1     4     2     2
 0.0000125175     1     4     2     3
 -0.0000056916     1     4     2     5
 0.0000009233     1     4     3     1
 -0.3650512176     1     4     3     2
 -0.0000000002     1     4     3     3
 -0.0000000014     1     4     3     5
 -0.0009206736     1     4     3    10
 -0.5494189966     1     4     4     1
 -0.0000000017     1     4     4     2
 -0.0002852538     1     4     4     3
 0.0000259478     1     4     4     5
 0.0000000001     1     4     4    10
 0.0000001037     1     4     5     1
 -0.0410127826     1     4     5     2
 0.0000000012     1     4     5     3
 -0.0000000257     1     4     5     5
 -0.0192481933     1     4     5    10
 -0.0000000271     1     4     6     6
 0.0000000001     1     4     6     7
 -0.0173873165     1     4     6     8
 -0.0083146355     1     4     6     9
 0.0000000001     1     4     7     6
 -0.0000000270     1     4     7     7
 0.0083146355     1     4     7     8
 -0.0173873165     1     4     7     9
 -0.0165073487     1     4     8     6
 0.0078938338     1     4     8     7
 -0.0000000229     1     4     8     8
 -0.0078938338     1     4     9     6
 -0.0165073487     1     4     9     7
 -0.0000000229     1     4     9     9
 -0.0218567180     1     4    10     1
 -0.0000000002     1     4    10     2
 0.0010222773     1     4    10     3
 -0.0180927531     1     4    10     5
 -0.0000000243     1     4    10    10
 -0.0000000030     1     5     2     1
 0.0023103956     1     5     2     2
 0.0000056916     1     5     2     4
 -0.0000503068     1     5     2    10
 0.0071761467     1     5     3     1
 0.0012790719     1     5     3     3
 0.0000000014     1     5     3     4
 0.0000000015     1     5     3    10
 0.0000001037     1     5     4     1
 -0.0410068235     1     5     4     2
 0.0000000026     1     5     4     3
 -0.0000259478     1     5     4     4
 -0.0001980128     1     5     4    10
 -0.5437641816     1     5     5     1
 0.0000000001     1     5     5     2
 -0.0206869627     1     5     5     3
 0.0000000257     1     5     5     4
 -0.0000000004     1     5     5    10
 0.0017291510     1     5     6     6
 -0.0000000005     1     5     6     8
 -0.0000000003     1     5     6     9
 0.0017291510     1     5     7     7
 0.0000000003     1     5     7     8
 -0.0000000005     1     5     7     9
 -0.0000000008     1     5     8     6
 0.0000000004     1     5     8     7
 0.0013835651     1     5     8     8
 -0.0000000004     1     5     9     6
 -0.0000000008     1     5     9     7
 0.0013835651     1     5     9     9
 -0.0000008166     1     5    10     1
 0.3228121929     1     5    10     2
 -0.0000000223     1     5    10     3
 0.0180927531     1     5    10     4
 0.0041178693     1     5    10    10
 -0.0000221273     1     6     2     8
 -0.0000105813     1     6     2     9
 0.0000000007     1     6     3     8
 0.0000000003     1     6     3     9
 -0.0000982731     1     6     4     8
 -0.0000469943     1     6     4     9
 -0.5492610524     1     6     6     1
 0.0000000004     1     6     6     2
 -0.0213688279     1     6     6     3
 0.0000000271     1     6     6     4
 -0.0017291510     1     6     6     5
 0.0000000011     1     6     6    10
 -0.0000000001     1     6     7     4
 -0.0000007525     1     6     8     1
 0.2975246261     1     6     8     2
 -0.0000000205     1     6     8     3
 0.0165073487     1     6     8     4
 0.0000000008     1     6     8     5
 0.0025429000     1     6     8    10
 -0.0000003599     1     6     9     1
 0.1422766307     1     6     9     2
 -0.0000000099     1     6     9     3
 0.0078938338     1     6     9     4
 0.0000000004     1     6     9     5
 0.0012160178     1     6     9    10
 0.0000795118     1     6    10     8
 0.0000380227     1     6    10     9
 0.0000105813     1     7     2     8
 -0.0000221273     1     7     2     9
 -0.0000000003     1     7     3     8
 0.0000000007     1     7     3     9
 0.0000469943     1     7     4     8
 -0.0000982731     1     7     4     9
 -0.0000000001     1     7     6     4
 -0.5492610524     1     7     7     1
 0.0000000003     1     7     7     2
 -0.0213688279     1     7     7     3
 0.0000000270     1     7     7     4
 -0.0017291510     1     7     7     5
 0.0000000011     1     7     7    10
 0.0000003598     1     7     8     1
 -0.1422766306     1     7     8     2
 0.0000000098     1     7     8     3
 -0.0078938338     1     7     8     4
 -0.0000000004     1     7     8     5
 -0.0012160178     1     7     8    10
 -0.0000007527     1     7     9     1
 0.2975246261     1     7     9     2
 -0.0000000205     1     7     9     3
 0.0165073487     1     7     9     4
 0.0000000008     1     7     9     5
 0.0025429000     1     7     9    10
 -0.0000380227     1     7    10     8
 0.0000795118     1     7    10     9
 0.0000221273     1     8     2     6
 -0.0000105813     1     8     2     7
 -0.0000000007     1     8     3     6
 0.0000000003     1     8     3     7
 0.0000982731     1     8     4     6
 -0.0000469943     1     8     4     7
 -0.0000007525     1     8     6     1
 0.2975456245     1     8     6     2
 -0.0000000222     1     8     6     3
 0.0173873165     1     8     6     4
 0.0000000005     1     8     6     5
 0.0026410286     1     8     6    10
 0.0000003598     1     8     7     1
 -0.1422866721     1     8     7     2
 0.0000000105     1     8     7     3
 -0.0083146355     1     8     7     4
 -0.0000000003     1     8     7     5
 -0.0012629429     1     8     7    10
 -0.5234284745     1     8     8     1
 0.0000000002     1     8     8     2
 -0.0176260852     1     8     8     3
 0.0000000229     1     8     8     4
 -0.0013835651     1     8     8     5
 0.0000000012     1     8     8    10
 -0.0000000001     1     8     9     2
 -0.0000795118     1     8    10     6
 0.0000380227     1     8    10     7
 0.0000105813     1     9     2     6
 0.0000221273     1     9     2     7
 -0.0000000003     1     9     3     6
 -0.0000000007     1     9     3     7
 0.0000469943     1     9     4     6
 0.0000982731     1     9     4     7
 -0.0000003599     1     9     6     1
 0.1422866721     1     9     6     2
 -0.0000000106     1     9     6     3
 0.0083146355     1     9     6     4
 0.0000000003     1     9     6     5
 0.0012629429     1     9     6    10
 -0.0000007527     1     9     7     1
 0.2975456246     1     9     7     2
 -0.0000000221     1     9     7     3
 0.0173873165     1     9     7     4
 0.0000000005     1     9     7     5
 0.0026410286     1     9     7    10
 -0.0000000001     1     9     8     2
 -0.5234284745     1     9     9     1
 -0.0000000007     1     9     9     2
 -0.0176260852     1     9     9     3
 0.0000000229     1     9     9     4
 -0.0013835651     1     9     9     5
 0.0000000013     1     9     9    10
 -0.0000380227     1     9    10     6
 -0.0000795118     1     9    10     7
 0.0019949234     1    10     2     1
 0.0000000026     1    10     2     2
 -0.0000075218     1    10     2     3
 0.0000503068     1    10     2     5
 0.0000000533     1    10     3     1
 -0.0210141170     1    10     3     2
 0.0000000016     1    10     3     3
 0.0009206736     1    10     3     4
 -0.0000000015     1    10     3     5
 -0.0218567180     1    10     4     1
 -0.0000000002     1    10     4     2
 0.0019722236     1    10     4     3
 -0.0000000001     1    10     4     4
 0.0001980128     1    10     4     5
 -0.0000008166     1    10     5     1
 0.3228620854     1    10     5     2
 -0.0000000250     1    10     5     3
 0.0192481933     1    10     5     4
 0.0000000004     1    10     5     5
 -0.0000000011     1    10     6     6
 -0.0026410286     1    10     6     8
 -0.0012629429     1    10     6     9
 -0.0000000011     1    10     7     7
 0.0012629429     1    10     7     8
 -0.0026410286     1    10     7     9
 -0.0025429000     1    10     8     6
 0.0012160178     1    10     8     7
 -0.0000000012     1    10     8     8
 -0.0012160178     1    10     9     6
 -0.0025429000     1    10     9     7
 -0.0000000013     1    10     9     9
 -0.5408329778     1    10    10     1
 0.0000000001     1    10    10     2
 -0.0183811522     1    10    10     3
 0.0000000243     1    10    10     4
 -0.0041178693     1    10    10     5
 -0.1824302328     2     1     1     2
 0.0000000001     2     1     1     3
 -0.0000976769     2     1     1     4
 -0.0000000030     2     1     1     5
 0.0019949234     2     1     1    10
 0.0000977915     2     1     3     2
 -0.0000000019     2     1     3     3
 0.3650637975     2     1     3     4
 0.0210063798     2     1     3    10
 0.0000000001     2     1     4     2
 0.3650512176     2     1     4     3
 0.0000000017     2     1     4     4
 0.0410127826     2     1     4     5
 0.0000000002     2     1     4    10
 -0.0023103956     2     1     5     2
 0.0410068235     2     1     5     4
 -0.0000000001     2     1     5     5
 -0.3228121929     2     1     5    10
 -0.0000000004     2     1     6     6
 -0.2975246261     2     1     6     8
 -0.1422766307     2     1     6     9
 -0.0000000003     2     1     7     7
 0.1422766306     2     1     7     8
 -0.2975246261     2     1     7     9
 -0.2975456245     2     1     8     6
 0.1422866721     2     1     8     7
 -0.0000000002     2     1     8     8
 0.0000000001     2     1     8     9
 -0.1422866721     2     1     9     6
 -0.2975456246     2     1     9     7
 0.0000000001     2     1     9     8
 0.0000000007     2     1     9     9
 -0.0000000026     2     1    10     2
 0.0210141170     2     1    10     3
 0.0000000002     2     1    10     4
 -0.3228620854     2     1    10     5
 -0.0000000001     2     1    10    10
 0.1824302328     2     2     1     1
 -0.0000977915     2     2     1     3
 -0.0000000001     2     2     1     4
 0.0023103956     2     2     1     5
 0.0000000026     2     2     1    10
 -0.0000977915     2     2     3     1
 0.5442377249     2     2     3     3
 0.0000009233     2     2     3     4
 -0.0071726018     2     2     3     5
 0.0000000530     2     2     3    10
 -0.0000000001     2     2     4     1
 0.0000009233     2     2     4     3
 0.5494311952     2     2     4     4
 0.0000001038     2     2     4     5
 0.0218508910     2     2     4    10
 0.0023103956     2     2     5     1
 -0.0071726018     2     2     5     3
 0.0000001038     2     2     5     4
 0.5438200713     2     2     5     5
 -0.0000008165     2     2     5    10
 0.5492906645     2     2     6     6
 -0.0000007526     2     2     6     8
 -0.0000003598     2     2     6     9
 0.5492906645     2     2     7     7
 0.0000003599     2     2     7     8
 -0.0000007525     2     2     7     9
 -0.0000007526     2     2     8     6
 0.0000003599     2     2     8     7
 0.5234087257     2     2     8     8
 -0.0000003598     2     2     9     6
 -0.0000007525     2     2     9     7
 0.5234087257     2     2     9     9
 0.0000000026     2     2    10     1
 0.0000000530     2     2    10     3
 0.0218508910     2     2    10     4
 -0.0000008165     2     2    10     5
 0.5407853616     2     2    10    10
 -0.0000000001     2     3     1     1
 0.0000977915     2     3     1     2
 0.0000125175     2     3     1     4
 -0.0000075218     2     3     1    10
 0.0000000019     2     3     3     1
 -0.5442377249     2     3     3     2
 -0.0001435363     2     3     3     4
 -0.0000000018     2     3     3     5
 0.0012971085     2     3     3    10
 -0.3650512176     2     3     4     1
 -0.0000009233     2     3     4     2
 0.0000000003     2     3     4     4
 0.0021501945     2     3     4     5
 -0.0000000026     2     3     4    10
 0.0071726018     2     3     5     2
 0.0010566772     2     3     5     4
 0.0000000261     2     3     5     5
 -0.0196448750     2     3     5    10
 0.0000000269     2     3     6     6
 0.0000000001     2     3     6     7
 -0.0174905768     2     3     6     8
 -0.0083640146     2     3     6     9
 0.0000000001     2     3     7     6
 0.0000000269     2     3     7     7
 0.0083640147     2     3     7     8
 -0.0174905768     2     3     7     9
 -0.0162172066     2     3     8     6
 0.0077550875     2     3     8     7
 0.0000000222     2     3     8     8
 -0.0077550875     2     3     9     6
 -0.0162172066     2     3     9     7
 0.0000000223     2     3     9     9
 -0.0210141170     2     3    10     1
 -0.0000000530     2     3    10     2
 -0.0000000012     2     3    10     4
 -0.0175547050     2     3    10     5
 0.0000000231     2     3    10    10
 0.0000976769     2     4     1     1
 0.0000000001     2     4     1     2
 -0.0000125175     2     4     1     3
 0.0000056916     2     4     1     5
 -0.3650637975     2     4     3     1
 -0.0000009233     2     4     3     2
 0.0001435363     2     4     3     3
 0.0010886992     2     4     3     5
 -0.0000000012     2     4     3    10
 -0.0000000017     2     4     4     1
 -0.5494311952     2     4     4     2
 -0.0000000003     2     4     4     3
 -0.0000713094     2     4     4    10
 -0.0410068235     2     4     5     1
 -0.0000001038     2     4     5     2
 -0.0010566772     2     4     5     3
 0.0203718351     2     4     5     5
 -0.0000000244     2     4     5    10
 0.0214478541     2     4     6     6
 -0.0000000221     2     4     6     8
 -0.0000000105     2     4     6     9
 0.0214478541     2     4     7     7
 0.0000000106     2     4     7     8
 -0.0000000220     2     4     7     9
 -0.0000000209     2     4     8     6
 0.0000000100     2     4     8     7
 0.0181330460     2     4     8     8
 -0.0000000100     2     4     9     6
 -0.0000000209     2     4     9     7
 0.0181330460     2     4     9     9
 -0.0000000002     2     4    10     1
 -0.0218508910     2     4    10     2
 0.0000000012     2     4    10     3
 -0.0000000229     2     4    10     5
 0.0192343674     2     4    10    10
 0.0000000030     2     5     1     1
 -0.0023103956     2     5     1     2
 -0.0000056916     2     5     1     4
 0.0000503068     2     5     1    10
 0.0071726018     2     5     3     2
 0.0000000018     2     5     3     3
 -0.0010886992     2     5     3     4
 -0.0012478622     2     5     3    10
 -0.0410127826     2     5     4     1
 -0.0000001038     2     5     4     2
 -0.0021501945     2     5     4     3
 -0.0000000003     2     5     4    10
 0.0000000001     2     5     5     1
 -0.5438200713     2     5     5     2
 -0.0000000261     2     5     5     3
 -0.0203718351     2     5     5     4
 0.0000877325     2     5     5    10
 0.0000000023     2     5     6     6
 0.0003976166     2     5     6     8
 0.0001901407     2     5     6     9
 0.0000000023     2     5     7     7
 -0.0001901407     2     5     7     8
 0.0003976166     2     5     7     9
 0.0006950654     2     5     8     6
 -0.0003323811     2     5     8     7
 0.0000000018     2     5     8     8
 0.0003323811     2     5     9     6
 0.0006950654     2     5     9     7
 0.0000000018     2     5     9     9
 0.3228620854     2     5    10     1
 0.0000008165     2     5    10     2
 0.0175547050     2     5    10     3
 0.0000000229     2     5    10     4
 0.0000000053     2     5    10    10
 0.0000221273     2     6     1     8
 0.0000105813     2     6     1     9
 -0.0005462258     2     6     3     8
 -0.0002612058     2     6     3     9
 -0.0000000001     2     6     4     8
 -0.0000000001     2     6     4     9
 0.0000248650     2     6     5     8
 0.0000118905     2     6     5     9
 0.0000000004     2     6     6     1
 -0.5492906645     2     6     6     2
 -0.0000000269     2     6     6     3
 -0.0214478541     2     6     6     4
 -0.0000000023     2     6     6     5
 -0.0008239746     2     6     6    10
 -0.0000000001     2     6     7     3
 0.2975456245     2     6     8     1
 0.0000007526     2     6     8     2
 0.0162172066     2     6     8     3
 0.0000000209     2     6     8     4
 -0.0006950654     2     6     8     5
 0.0000000033     2     6     8    10
 0.1422866721     2     6     9     1
 0.0000003598     2     6     9     2
 0.0077550875     2     6     9     3
 0.0000000100     2     6     9     4
 -0.0003323811     2     6     9     5
 0.0000000015     2     6     9    10
 0.0000000001     2     6    10     8
 0.0000000001     2     6    10     9
 -0.0000105813     2     7     1     8
 0.0000221273     2     7     1     9
 0.0002612058     2     7     3     8
 -0.0005462258     2     7     3     9
 0.0000000001     2     7     4     8
 -0.0000000001     2     7     4     9
 -0.0000118905     2     7     5     8
 0.0000248650     2     7     5     9
 -0.0000000001     2     7     6     3
 0.0000000003     2     7     7     1
 -0.5492906645     2     7     7     2
 -0.0000000269     2     7     7     3
 -0.0214478541     2     7     7     4
 -0.0000000023     2     7     7     5
 -0.0008239746     2     7     7    10
 -0.1422866721     2     7     8     1
 -0.0000003599     2     7     8     2
 -0.0077550875     2     7     8     3
 -0.0000000100     2     7     8     4
 0.0003323811     2     7     8     5
 -0.0000000015     2     7     8    10
 0.2975456246     2     7     9     1
 0.0000007525     2     7     9     2
 0.0162172066     2     7     9     3
 0.0000000209     2     7     9     4
 -0.0006950654     2     7     9     5
 0.0000000033     2     7     9    10
 -0.0000000001     2     7    10     8
 0.0000000001     2     7    10     9
 -0.0000221273     2     8     1     6
 0.0000105813     2     8     1     7
 0.0005462258     2     8     3     6
 -0.0002612058     2     8     3     7
 0.0000000001     2     8     4     6
 -0.0000000001     2     8     4     7
 -0.0000248650     2     8     5     6
 0.0000118905     2     8     5     7
 0.2975246261     2     8     6     1
 0.0000007526     2     8     6     2
 0.0174905768     2     8     6     3
 0.0000000221     2     8     6     4
 -0.0003976166     2     8     6     5
 0.0000000034     2     8     6    10
 -0.1422766306     2     8     7     1
 -0.0000003599     2     8     7     2
 -0.0083640147     2     8     7     3
 -0.0000000106     2     8     7     4
 0.0001901407     2     8     7     5
 -0.0000000016     2     8     7    10
 0.0000000002     2     8     8     1
 -0.5234087257     2     8     8     2
 -0.0000000222     2     8     8     3
 -0.0181330460     2     8     8     4
 -0.0000000018     2     8     8     5
 -0.0009536608     2     8     8    10
 -0.0000000001     2     8     9     1
 -0.0000000001     2     8    10     6
 0.0000000001     2     8    10     7
 -0.0000105813     2     9     1     6
 -0.0000221273     2     9     1     7
 0.0002612058     2     9     3     6
 0.0005462258     2     9     3     7
 0.0000000001     2     9     4     6
 0.0000000001     2     9     4     7
 -0.0000118905     2     9     5     6
 -0.0000248650     2     9     5     7
 0.1422766307     2     9     6     1
 0.0000003598     2     9     6     2
 0.0083640146     2     9     6     3
 0.0000000105     2     9     6     4
 -0.0001901407     2     9     6     5
 0.0000000016     2     9     6    10
 0.2975246261     2     9     7     1
 0.0000007525     2     9     7     2
 0.0174905768     2     9     7     3
 0.0000000220     2     9     7     4
 -0.0003976166     2     9     7     5
 0.0000000034     2     9     7    10
 -0.0000000001     2     9     8     1
 -0.0000000007     2     9     9     1
 -0.5234087257     2     9     9     2
 -0.0000000223     2     9     9     3
 -0.0181330460     2     9     9     4
 -0.0000000018     2     9     9     5
 -0.0009536608     2     9     9    10
 -0.0000000001     2     9    10     6
 -0.0000000001     2     9    10     7
 -0.0019949234     2    10     1     1
 -0.0000000026     2    10     1     2
 0.0000075218     2    10     1     3
 -0.0000503068     2    10     1     5
 -0.0210063798     2    10     3     1
 -0.0000000530     2    10     3     2
 -0.0012971085     2    10     3     3
 0.0000000012     2    10     3     4
 0.0012478622     2    10     3     5
 -0.0000000002     2    10     4     1
 -0.0218508910     2    10     4     2
 0.0000000026     2    10     4     3
 0.0000713094     2    10     4     4
 0.0000000003     2    10     4     5
 0.3228121929     2    10     5     1
 0.0000008165     2    10     5     2
 0.0196448750     2    10     5     3
 0.0000000244     2    10     5     4
 -0.0000877325     2    10     5     5
 0.0008239746     2    10     6     6
 -0.0000000034     2    10     6     8
 -0.0000000016     2    10     6     9
 0.0008239746     2    10     7     7
 0.0000000016     2    10     7     8
 -0.0000000034     2    10     7     9
 -0.0000000033     2    10     8     6
 0.0000000015     2    10     8     7
 0.0009536608     2    10     8     8
 -0.0000000015     2    10     9     6
 -0.0000000033     2    10     9     7
 0.0009536608     2    10     9     9
 0.0000000001     2    10    10     1
 -0.5407853616     2    10    10     2
 -0.0000000231     2    10    10     3
 -0.0192343674     2    10    10     4
 -0.0000000053     2    10    10     5
 0.0000000001     3     1     1     2
 -0.5442508006     3     1     1     3
 0.0000009233     3     1     1     4
 0.0071761467     3     1     1     5
 0.0000000533     3     1     1    10
 -0.0000977915     3     1     2     2
 0.0000000019     3     1     2     3
 -0.3650637975     3     1     2     4
 -0.0210063798     3     1     2    10
 -0.0000125175     3     1     4     2
 0.0000000002     3     1     4     3
 0.0002852538     3     1     4     4
 -0.0000000012     3     1     4     5
 -0.0010222773     3     1     4    10
 -0.0012790719     3     1     5     3
 -0.0000000026     3     1     5     4
 0.0206869627     3     1     5     5
 0.0000000223     3     1     5    10
 0.0213688279     3     1     6     6
 0.0000000205     3     1     6     8
 0.0000000099     3     1     6     9
 0.0213688279     3     1     7     7
 -0.0000000098     3     1     7     8
 0.0000000205     3     1     7     9
 0.0000000222     3     1     8     6
 -0.0000000105     3     1     8     7
 0.0176260852     3     1     8     8
 0.0000000106     3     1     9     6
 0.0000000221     3     1     9     7
 0.0176260852     3     1     9     9
 0.0000075218     3     1    10     2
 -0.0000000016     3     1    10     3
 -0.0019722236     3     1    10     4
 0.0000000250     3     1    10     5
 0.0183811522     3     1    10    10
 -0.0000000001     3     2     1     1
 0.0000000019     3     2     1     3
 -0.3650512176     3     2     1     4
 -0.0210141170     3     2     1    10
 0.0000977915     3     2     2     1
 -0.5442377249     3     2     2     3
 -0.0000009233     3     2     2     4
 0.0071726018     3     2     2     5
 -0.0000000530     3     2     2    10
 0.0000125175     3     2     4     1
 -0.0001435363     3     2     4     3
 0.0000000003     3     2     4     4
 0.0010566772     3     2     4     5
 -0.0000000012     3     2     4    10
 -0.0000000018     3     2     5     3
 0.0021501945     3     2     5     4
 0.0000000261     3     2     5     5
 -0.0175547050     3     2     5    10
 0.0000000269     3     2     6     6
 0.0000000001     3     2     6     7
 -0.0162172066     3     2     6     8
 -0.0077550875     3     2     6     9
 0.0000000001     3     2     7     6
 0.0000000269     3     2     7     7
 0.0077550875     3     2     7     8
 -0.0162172066     3     2     7     9
 -0.0174905768     3     2     8     6
 0.0083640147     3     2     8     7
 0.0000000222     3     2     8     8
 -0.0083640146     3     2     9     6
 -0.0174905768     3     2     9     7
 0.0000000223     3     2     9     9
 -0.0000075218     3     2    10     1
 0.0012971085     3     2    10     3
 -0.0000000026     3     2    10     4
 -0.0196448750     3     2    10     5
 0.0000000231     3     2    10    10
 0.5442508006     3     3     1     1
 -0.0000000019     3     3     1     2
 -0.0000000002     3     3     1     4
 0.0012790719     3     3     1     5
 0.0000000016     3     3     1    10
 -0.0000000019     3     3     2     1
 0.5442377249     3     3     2     2
 0.0001435363     3     3     2     4
 0.0000000018     3     3     2     5
 -0.0012971085     3     3     2    10
 -0.0000000002     3     3     4     1
 0.0001435363     3     3     4     2
 0.1792928167     3     3     4     4
 -0.0000000005     3     3     4     5
 0.0114956368     3     3     4    10
 0.0012790719     3     3     5     1
 0.0000000018     3     3     5     2
 -0.0000000005     3     3     5     4
 0.3510966831     3     3     5     5
 0.0000000012     3     3     5    10
 0.3529738867     3     3     6     6
 0.0000000009     3     3     6     8
 0.0000000004     3     3     6     9
 0.3529738867     3     3     7     7
 -0.0000000004     3     3     7     8
 0.0000000009     3     3     7     9
 0.0000000009     3     3     8     6
 -0.0000000004     3     3     8     7
 0.3521178756     3     3     8     8
 0.0000000004     3     3     9     6
 0.0000000009     3     3     9     7
 0.3521178756     3     3     9     9
 0.0000000016     3     3    10     1
 -0.0012971085     3     3    10     2
 0.0114956368     3     3    10     4
 0.0000000012     3     3    10     5
 0.3626137635     3     3    10    10
 -0.0000009233     3     4     1     1
 0.3650512176     3     4     1     2
 0.0000000002     3     4     1     3
 0.0000000014     3     4     1     5
 0.0009206736     3     4     1    10
 0.3650637975     3     4     2     1
 0.0000009233     3     4     2     2
 -0.0001435363     3     4     2     3
 -0.0010886992     3     4     2     5
 0.0000000012     3     4     2    10