&FCI NORB= 10,NELEC= 14,MS2=0,
 ORBSYM=1,1,1,1,1,1,1,1,1,1
 ISYM=1,
&END
 0.2300510263     1     1     2     2
 0.0000002855     1     1     2     3
 -0.0003515714     1     1     2     4
 0.0000037861     1     1     2     5
 0.0032989190     1     1     2    10
 0.0000002855     1     1     3     2
 0.5671635024     1     1     3     3
 -0.0007177050     1     1     3     4
 0.0108922779     1     1     3     5
 -0.0000996029     1     1     3    10
 -0.0003515714     1     1     4     2
 -0.0007177050     1     1     4     3
 0.5747032585     1     1     4     4
 0.0001727085     1     1     4     5
 0.0366534559     1     1     4    10
 0.0000037861     1     1     5     2
 0.0108922779     1     1     5     3
 0.0001727085     1     1     5     4
 0.5645472145     1     1     5     5
 -0.0006040199     1     1     5    10
 0.5650847733     1     1     6     6
 -0.0005525758     1     1     6     8
 0.0003269589     1     1     6     9
 0.5650847733     1     1     7     7
 0.0003269589     1     1     7     8
 0.0005525758     1     1     7     9
 -0.0005525758     1     1     8     6
 0.0003269589     1     1     8     7
 0.5473739505     1     1     8     8
 0.0003269589     1     1     9     6
 0.0005525758     1     1     9     7
 0.5473739505     1     1     9     9
 0.0032989190     1     1    10     2
 -0.0000996029     1     1    10     3
 0.0366534559     1     1    10     4
 -0.0006040199     1     1    10     5
 0.5745620371     1     1    10    10
 -0.2300510263     1     2     2     1
 -0.0002695371     1     2     2     3
 -0.0000003722     1     2     2     4
 -0.0035814148     1     2     2     5
 0.0000034878     1     2     2    10
 -0.0000002855     1     2     3     1
 -0.0000009865     1     2     3     3
 0.3393566217     1     2     3     4
 0.0000000952     1     2     3     5
 0.0470819791     1     2     3    10
 0.0003515714     1     2     4     1
 0.3393683780     1     2     4     3
 0.0000009565     1     2     4     4
 -0.0816536196     1     2     4     5
 0.0000000674     1     2     4    10
 -0.0000037861     1     2     5     1
 0.0000000952     1     2     5     3
 -0.0816699780     1     2     5     4
 -0.0000002625     1     2     5     5
 0.2856645700     1     2     5    10
 -0.0000002692     1     2     6     6
 0.2613113137     1     2     6     8
 -0.1546178213     1     2     6     9
 -0.0000002693     1     2     7     7
 -0.1546178213     1     2     7     8
 -0.2613113137     1     2     7     9
 0.2612693021     1     2     8     6
 -0.1545929631     1     2     8     7
 0.0000001962     1     2     8     8
 -0.1545929631     1     2     9     6
 -0.2612693021     1     2     9     7
 0.0000001962     1     2     9     9
 -0.0032989190     1     2    10     1
 0.0470674143     1     2    10     3
 0.0000000673     1     2    10     4
 0.2855636564     1     2    10     5
 0.0000001993     1     2    10    10
 -0.0000002855     1     3     2     1
 0.0002695371     1     3     2     2
 -0.0000114953     1     3     2     4
 0.0000140992     1     3     2    10
 -0.5671635024     1     3     3     1
 0.0000009865     1     3     3     2
 -0.0000002558     1     3     3     4
 -0.0027740009     1     3     3     5
 0.0000029635     1     3     3    10
 0.0007177050     1     3     4     1
 -0.3393683780     1     3     4     2
 -0.0005391695     1     3     4     4
 -0.0000038626     1     3     4     5
 0.0034475742     1     3     4    10
 -0.0108922779     1     3     5     1
 -0.0000000952     1     3     5     2
 -0.0000028270     1     3     5     4
 -0.0200804310     1     3     5     5
 0.0000206693     1     3     5    10
 -0.0205885743     1     3     6     6
 0.0000173647     1     3     6     8
 -0.0000102747     1     3     6     9
 -0.0205885743     1     3     7     7
 -0.0000102747     1     3     7     8
 -0.0000173647     1     3     7     9
 0.0000156981     1     3     8     6
 -0.0000092886     1     3     8     7
 -0.0176703456     1     3     8     8
 -0.0000092886     1     3     9     6
 -0.0000156981     1     3     9     7
 -0.0176703456     1     3     9     9
 0.0000996029     1     3    10     1
 -0.0470674143     1     3    10     2
 0.0021777420     1     3    10     4
 0.0000172366     1     3    10     5
 -0.0184676975     1     3    10    10
 0.0003515714     1     4     2     1
 0.0000003722     1     4     2     2
 0.0000114953     1     4     2     3
 0.0000155769     1     4     2     5
 0.0007177050     1     4     3     1
 -0.3393566217     1     4     3     2
 0.0000002558     1     4     3     3
 -0.0000010102     1     4     3     5
 0.0011195767     1     4     3    10
 -0.5747032585     1     4     4     1
 -0.0000009565     1     4     4     2
 0.0005391695     1     4     4     3
 0.0006014712     1     4     4     5
 -0.0000006920     1     4     4    10
 -0.0001727085     1     4     5     1
 0.0816699780     1     4     5     2
 0.0000028270     1     4     5     3
 0.0000206658     1     4     5     5
 -0.0189331688     1     4     5    10
 0.0000220586     1     4     6     6
 -0.0161318405     1     4     6     8
 0.0095452049     1     4     6     9
 0.0000220586     1     4     7     7
 0.0095452049     1     4     7     8
 0.0161318405     1     4     7     9
 -0.0153506166     1     4     8     6
 0.0090829550     1     4     8     7
 0.0000198552     1     4     8     8
 0.0090829550     1     4     9     6
 0.0153506166     1     4     9     7
 0.0000198552     1     4     9     9
 -0.0366534559     1     4    10     1
 -0.0000000673     1     4    10     2
 -0.0021777420     1     4    10     3
 -0.0170707520     1     4    10     5
 0.0000216317     1     4    10    10
 -0.0000037861     1     5     2     1
 0.0035814148     1     5     2     2
 -0.0000155769     1     5     2     4
 0.0001021727     1     5     2    10
 -0.0108922779     1     5     3     1
 -0.0000000952     1     5     3     2
 0.0027740009     1     5     3     3
 0.0000010102     1     5     3     4
 0.0000023417     1     5     3    10
 -0.0001727085     1     5     4     1
 0.0816536196     1     5     4     2
 0.0000038626     1     5     4     3
 -0.0006014712     1     5     4     4
 -0.0006001983     1     5     4    10
 -0.5645472145     1     5     5     1
 0.0000002625     1     5     5     2
 0.0200804310     1     5     5     3
 -0.0000206658     1     5     5     4
 -0.0000007635     1     5     5    10
 0.0035228447     1     5     6     6
 0.0000000535     1     5     6     8
 -0.0000000317     1     5     6     9
 0.0035228447     1     5     7     7
 -0.0000000317     1     5     7     8
 -0.0000000535     1     5     7     9
 -0.0000000042     1     5     8     6
 0.0000000025     1     5     8     7
 0.0028992326     1     5     8     8
 0.0000000025     1     5     9     6
 0.0000000042     1     5     9     7
 0.0028992326     1     5     9     9
 0.0006040199     1     5    10     1
 -0.2855636564     1     5    10     2
 -0.0000172366     1     5    10     3
 0.0170707520     1     5    10     4
 0.0075686754     1     5    10    10
 0.0000424867     1     6     2     8
 -0.0000251393     1     6     2     9
 0.0000008653     1     6     3     8
 -0.0000005121     1     6     3     9
 0.0000940676     1     6     4     8
 -0.0000556597     1     6     4     9
 0.0000003253     1     6     5     8
 -0.0000001925     1     6     5     9
 -0.5650847733     1     6     6     1
 0.0000002692     1     6     6     2
 0.0205885743     1     6     6     3
 -0.0000220586     1     6     6     4
 -0.0035228447     1     6     6     5
 -0.0000018898     1     6     6    10
 0.0005525758     1     6     8     1
 -0.2612693021     1     6     8     2
 -0.0000156981     1     6     8     3
 0.0153506166     1     6     8     4
 0.0000000042     1     6     8     5
 0.0043227644     1     6     8    10
 -0.0003269589     1     6     9     1
 0.1545929631     1     6     9     2
 0.0000092886     1     6     9     3
 -0.0090829550     1     6     9     4
 -0.0000000025     1     6     9     5
 -0.0025577783     1     6     9    10
 0.0001096953     1     6    10     8
 -0.0000649067     1     6    10     9
 -0.0000251393     1     7     2     8
 -0.0000424867     1     7     2     9
 -0.0000005121     1     7     3     8
 -0.0000008653     1     7     3     9
 -0.0000556597     1     7     4     8
 -0.0000940676     1     7     4     9
 -0.0000001925     1     7     5     8
 -0.0000003253     1     7     5     9
 -0.5650847733     1     7     7     1
 0.0000002693     1     7     7     2
 0.0205885743     1     7     7     3
 -0.0000220586     1     7     7     4
 -0.0035228447     1     7     7     5
 -0.0000018898     1     7     7    10
 -0.0003269589     1     7     8     1
 0.1545929631     1     7     8     2
 0.0000092886     1     7     8     3
 -0.0090829550     1     7     8     4
 -0.0000000025     1     7     8     5
 -0.0025577783     1     7     8    10
 -0.0005525758     1     7     9     1
 0.2612693021     1     7     9     2
 0.0000156981     1     7     9     3
 -0.0153506166     1     7     9     4
 -0.0000000042     1     7     9     5
 -0.0043227644     1     7     9    10
 -0.0000649067     1     7    10     8
 -0.0001096953     1     7    10     9
 -0.0000424867     1     8     2     6
 0.0000251393     1     8     2     7
 -0.0000008653     1     8     3     6
 0.0000005121     1     8     3     7
 -0.0000940676     1     8     4     6
 0.0000556597     1     8     4     7
 -0.0000003253     1     8     5     6
 0.0000001925     1     8     5     7
 0.0005525758     1     8     6     1
 -0.2613113137     1     8     6     2
 -0.0000173647     1     8     6     3
 0.0161318405     1     8     6     4
 -0.0000000535     1     8     6     5
 0.0044991515     1     8     6    10
 -0.0003269589     1     8     7     1
 0.1546178213     1     8     7     2
 0.0000102747     1     8     7     3
 -0.0095452049     1     8     7     4
 0.0000000317     1     8     7     5
 -0.0026621465     1     8     7    10
 -0.5473739505     1     8     8     1
 -0.0000001962     1     8     8     2
 0.0176703456     1     8     8     3
 -0.0000198552     1     8     8     4
 -0.0028992326     1     8     8     5
 -0.0000025346     1     8     8    10
 -0.0001096953     1     8    10     6
 0.0000649067     1     8    10     7
 0.0000251393     1     9     2     6
 0.0000424867     1     9     2     7
 0.0000005121     1     9     3     6
 0.0000008653     1     9     3     7
 0.0000556597     1     9     4     6
 0.0000940676     1     9     4     7
 0.0000001925     1     9     5     6
 0.0000003253     1     9     5     7
 -0.0003269589     1     9     6     1
 0.1546178213     1     9     6     2
 0.0000102747     1     9     6     3
 -0.0095452049     1     9     6     4
 0.0000000317     1     9     6     5
 -0.0026621465     1     9     6    10
 -0.0005525758     1     9     7     1
 0.2613113137     1     9     7     2
 0.0000173647     1     9     7     3
 -0.0161318405     1     9     7     4
 0.0000000535     1     9     7     5
 -0.0044991515     1     9     7    10
 -0.5473739505     1     9     9     1
 -0.0000001962     1     9     9     2
 0.0176703456     1     9     9     3
 -0.0000198552     1     9     9     4
 -0.0028992326     1     9     9     5
 -0.0000025346     1     9     9    10
 0.0000649067     1     9    10     6
 0.0001096953     1     9    10     7
 -0.0032989190     1    10     2     1
 -0.0000034878     1    10     2     2
 -0.0000140992     1    10     2     3
 -0.0001021727     1    10     2     5
 0.0000996029     1    10     3     1
 -0.0470819791     1    10     3     2
 -0.0000029635     1    10     3     3
 -0.0011195767     1    10     3     4
 -0.0000023417     1    10     3     5
 -0.0366534559     1    10     4     1
 -0.0000000674     1    10     4     2
 -0.0034475742     1    10     4     3
 0.0000006920     1    10     4     4
 0.0006001983     1    10     4     5
 0.0006040199     1    10     5     1
 -0.2856645700     1    10     5     2
 -0.0000206693     1    10     5     3
 0.0189331688     1    10     5     4
 0.0000007635     1    10     5     5
 0.0000018898     1    10     6     6
 -0.0044991515     1    10     6     8
 0.0026621465     1    10     6     9
 0.0000018898     1    10     7     7
 0.0026621465     1    10     7     8
 0.0044991515     1    10     7     9
 -0.0043227644     1    10     8     6
 0.0025577783     1    10     8     7
 0.0000025346     1    10     8     8
 0.0025577783     1    10     9     6
 0.0043227644     1    10     9     7
 0.0000025346     1    10     9     9
 -0.5745620371     1    10    10     1
 -0.0000001993     1    10    10     2
 0.0184676975     1    10    10     3
 -0.0000216317     1    10    10     4
 -0.0075686754     1    10    10     5
 -0.2300510263     2     1     1     2
 -0.0000002855     2     1     1     3
 0.0003515714     2     1     1     4
 -0.0000037861     2     1     1     5
 -0.0032989190     2     1     1    10
 -0.0002695371     2     1     3     2
 -0.0000009865     2     1     3     3
 0.3393683780     2     1     3     4
 0.0000000952     2     1     3     5
 0.0470674143     2     1     3    10
 -0.0000003722     2     1     4     2
 0.3393566217     2     1     4     3
 0.0000009565     2     1     4     4
 -0.0816699780     2     1     4     5
 0.0000000673     2     1     4    10
 -0.0035814148     2     1     5     2
 0.0000000952     2     1     5     3
 -0.0816536196     2     1     5     4
 -0.0000002625     2     1     5     5
 0.2855636564     2     1     5    10
 -0.0000002692     2     1     6     6
 0.2612693021     2     1     6     8
 -0.1545929631     2     1     6     9
 -0.0000002693     2     1     7     7
 -0.1545929631     2     1     7     8
 -0.2612693021     2     1     7     9
 0.2613113137     2     1     8     6
 -0.1546178213     2     1     8     7
 0.0000001962     2     1     8     8
 -0.1546178213     2     1     9     6
 -0.2613113137     2     1     9     7
 0.0000001962     2     1     9     9
 0.0000034878     2     1    10     2
 0.0470819791     2     1    10     3
 0.0000000674     2     1    10     4
 0.2856645700     2     1    10     5
 0.0000001993     2     1    10    10
 0.2300510263     2     2     1     1
 0.0002695371     2     2     1     3
 0.0000003722     2     2     1     4
 0.0035814148     2     2     1     5
 -0.0000034878     2     2     1    10
 0.0002695371     2     2     3     1
 0.5671504513     2     2     3     3
 0.0007176524     2     2     3     4
 0.0108889464     2     2     3     5
 0.0000995029     2     2     3    10
 0.0000003722     2     2     4     1
 0.0007176524     2     2     4     3
 0.5747126596     2     2     4     4
 -0.0001726858     2     2     4     5
 0.0366509503     2     2     4    10
 0.0035814148     2     2     5     1
 0.0108889464     2     2     5     3
 -0.0001726858     2     2     5     4
 0.5646557189     2     2     5     5
 0.0006040050     2     2     5    10
 0.5651430145     2     2     6     6
 0.0005525699     2     2     6     8
 -0.0003269554     2     2     6     9
 0.5651430145     2     2     7     7
 -0.0003269554     2     2     7     8
 -0.0005525698     2     2     7     9
 0.0005525699     2     2     8     6
 -0.0003269554     2     2     8     7
 0.5473358380     2     2     8     8
 -0.0003269554     2     2     9     6
 -0.0005525698     2     2     9     7
 0.5473358380     2     2     9     9
 -0.0000034878     2     2    10     1
 0.0000995029     2     2    10     3
 0.0366509503     2     2    10     4
 0.0006040050     2     2    10     5
 0.5744625349     2     2    10    10
 0.0000002855     2     3     1     1
 -0.0002695371     2     3     1     2
 0.0000114953     2     3     1     4
 -0.0000140992     2     3     1    10
 0.0000009865     2     3     3     1
 -0.5671504513     2     3     3     2
 0.0002427375     2     3     3     4
 -0.0000029390     2     3     3     5
 -0.0028095976     2     3     3    10
 -0.3393566217     2     3     4     1
 -0.0007176524     2     3     4     2
 -0.0000005697     2     3     4     4
 0.0036464896     2     3     4     5
 0.0000036396     2     3     4    10
 -0.0000000952     2     3     5     1
 -0.0108889464     2     3     5     2
 0.0026721086     2     3     5     4
 -0.0000211929     2     3     5     5
 -0.0195193892     2     3     5    10
 -0.0000217256     2     3     6     6
 -0.0163985861     2     3     6     8
 0.0097030381     2     3     6     9
 -0.0000217256     2     3     7     7
 0.0097030381     2     3     7     8
 0.0163985860     2     3     7     9
 -0.0148238108     2     3     8     6
 0.0087712441     2     3     8     7
 -0.0000186650     2     3     8     8
 0.0087712441     2     3     9     6
 0.0148238107     2     3     9     7
 -0.0000186650     2     3     9     9
 -0.0470819791     2     3    10     1
 -0.0000995029     2     3    10     2
 0.0000023027     2     3    10     4
 -0.0162757452     2     3    10     5
 -0.0000195032     2     3    10    10
 -0.0003515714     2     4     1     1
 -0.0000003722     2     4     1     2
 -0.0000114953     2     4     1     3
 -0.0000155769     2     4     1     5
 -0.3393683780     2     4     3     1
 -0.0007176524     2     4     3     2
 -0.0002427375     2     4     3     3
 0.0009503624     2     4     3     5
 0.0000011782     2     4     3    10
 -0.0000009565     2     4     4     1
 -0.5747126596     2     4     4     2
 0.0000005697     2     4     4     3
 0.0000006414     2     4     4     5
 0.0006596248     2     4     4    10
 0.0816536196     2     4     5     1
 0.0001726858     2     4     5     2
 -0.0026721086     2     4     5     3
 -0.0195606798     2     4     5     5
 -0.0000200455     2     4     5    10
 -0.0208758052     2     4     6     6
 -0.0000170797     2     4     6     8
 0.0000101061     2     4     6     9
 -0.0208758052     2     4     7     7
 0.0000101061     2     4     7     8
 0.0000170797     2     4     7     9
 -0.0000162516     2     4     8     6
 0.0000096161     2     4     8     7
 -0.0188090960     2     4     8     8
 0.0000096161     2     4     9     6
 0.0000162517     2     4     9     7
 -0.0188090960     2     4     9     9
 -0.0000000674     2     4    10     1
 -0.0366509503     2     4    10     2
 -0.0000023027     2     4    10     3
 -0.0000180716     2     4    10     5
 -0.0204878007     2     4    10    10
 0.0000037861     2     5     1     1
 -0.0035814148     2     5     1     2
 0.0000155769     2     5     1     4
 -0.0001021727     2     5     1    10
 -0.0000000952     2     5     3     1
 -0.0108889464     2     5     3     2
 0.0000029390     2     5     3     3
 -0.0009503624     2     5     3     4
 -0.0022133514     2     5     3    10
 0.0816699780     2     5     4     1
 0.0001726858     2     5     4     2
 -0.0036464896     2     5     4     3
 -0.0000006414     2     5     4     4
 -0.0000006377     2     5     4    10
 0.0000002625     2     5     5     1
 -0.5646557189     2     5     5     2
 0.0000211929     2     5     5     3
 0.0195606798     2     5     5     4
 0.0007211675     2     5     5    10
 0.0000037259     2     5     6     6
 -0.0000489343     2     5     6     8
 0.0000289544     2     5     6     9
 0.0000037259     2     5     7     7
 0.0000289544     2     5     7     8
 0.0000489343     2     5     7     9
 0.0000055073     2     5     8     6
 -0.0000032587     2     5     8     7
 0.0000030666     2     5     8     8
 -0.0000032587     2     5     9     6
 -0.0000055073     2     5     9     7
 0.0000030666     2     5     9     9
 -0.2856645700     2     5    10     1
 -0.0006040050     2     5    10     2
 0.0162757452     2     5    10     3
 0.0000180716     2     5    10     4
 0.0000080033     2     5    10    10
 -0.0000424867     2     6     1     8
 0.0000251393     2     6     1     9
 -0.0008181015     2     6     3     8
 0.0004840705     2     6     3     9
 0.0000000986     2     6     4     8
 -0.0000000584     2     6     4     9
 -0.0003074291     2     6     5     8
 0.0001819057     2     6     5     9
 0.0000002692     2     6     6     1
 -0.5651430145     2     6     6     2
 0.0000217256     2     6     6     3
 0.0208758052     2     6     6     4
 -0.0000037259     2     6     6     5
 0.0017834414     2     6     6    10
 -0.2613113137     2     6     8     1
 -0.0005525699     2     6     8     2
 0.0148238108     2     6     8     3
 0.0000162516     2     6     8     4
 -0.0000055073     2     6     8     5
 0.0000045699     2     6     8    10
 0.1546178213     2     6     9     1
 0.0003269554     2     6     9     2
 -0.0087712441     2     6     9     3
 -0.0000096161     2     6     9     4
 0.0000032587     2     6     9     5
 -0.0000027040     2     6     9    10
 0.0000001159     2     6    10     8
 -0.0000000686     2     6    10     9
 0.0000251393     2     7     1     8
 0.0000424867     2     7     1     9
 0.0004840705     2     7     3     8
 0.0008181015     2     7     3     9
 -0.0000000584     2     7     4     8
 -0.0000000986     2     7     4     9
 0.0001819057     2     7     5     8
 0.0003074291     2     7     5     9
 0.0000002693     2     7     7     1
 -0.5651430145     2     7     7     2
 0.0000217256     2     7     7     3
 0.0208758052     2     7     7     4
 -0.0000037259     2     7     7     5
 0.0017834414     2     7     7    10
 0.1546178213     2     7     8     1
 0.0003269554     2     7     8     2
 -0.0087712441     2     7     8     3
 -0.0000096161     2     7     8     4
 0.0000032587     2     7     8     5
 -0.0000027040     2     7     8    10
 0.2613113137     2     7     9     1
 0.0005525698     2     7     9     2
 -0.0148238107     2     7     9     3
 -0.0000162517     2     7     9     4
 0.0000055073     2     7     9     5
 -0.0000045699     2     7     9    10
 -0.0000000686     2     7    10     8
 -0.0000001159     2     7    10     9
 0.0000424867     2     8     1     6
 -0.0000251393     2     8     1     7
 0.0008181015     2     8     3     6
 -0.0004840705     2     8     3     7
 -0.0000000986     2     8     4     6
 0.0000000584     2     8     4     7
 0.0003074291     2     8     5     6
 -0.0001819057     2     8     5     7
 -0.2612693021     2     8     6     1
 -0.0005525699     2     8     6     2
 0.0163985861     2     8     6     3
 0.0000170797     2     8     6     4
 0.0000489343     2     8     6     5
 0.0000047566     2     8     6    10
 0.1545929631     2     8     7     1
 0.0003269554     2     8     7     2
 -0.0097030381     2     8     7     3
 -0.0000101061     2     8     7     4
 -0.0000289544     2     8     7     5
 -0.0000028144     2     8     7    10
 -0.0000001962     2     8     8     1
 -0.5473358380     2     8     8     2
 0.0000186650     2     8     8     3
 0.0188090960     2     8     8     4
 -0.0000030666     2     8     8     5
 0.0023983611     2     8     8    10
 -0.0000001159     2     8    10     6
 0.0000000686     2     8    10     7
 -0.0000251393     2     9     1     6
 -0.0000424867     2     9     1     7
 -0.0004840705     2     9     3     6
 -0.0008181015     2     9     3     7
 0.0000000584     2     9     4     6
 0.0000000986     2     9     4     7
 -0.0001819057     2     9     5     6
 -0.0003074291     2     9     5     7
 0.1545929631     2     9     6     1
 0.0003269554     2     9     6     2
 -0.0097030381     2     9     6     3
 -0.0000101061     2     9     6     4
 -0.0000289544     2     9     6     5
 -0.0000028144     2     9     6    10
 0.2612693021     2     9     7     1
 0.0005525698     2     9     7     2
 -0.0163985860     2     9     7     3
 -0.0000170797     2     9     7     4
 -0.0000489343     2     9     7     5
 -0.0000047566     2     9     7    10
 -0.0000001962     2     9     9     1
 -0.5473358380     2     9     9     2
 0.0000186650     2     9     9     3
 0.0188090960     2     9     9     4
 -0.0000030666     2     9     9     5
 0.0023983611     2     9     9    10
 0.0000000686     2     9    10     6
 0.0000001159     2     9    10     7
 0.0032989190     2    10     1     1
 0.0000034878     2    10     1     2
 0.0000140992     2    10     1     3
 0.0001021727     2    10     1     5
 -0.0470674143     2    10     3     1
 -0.0000995029     2    10     3     2
 0.0028095976     2    10     3     3
 -0.0000011782     2    10     3     4
 0.0022133514     2    10     3     5
 -0.0000000673     2    10     4     1
 -0.0366509503     2    10     4     2
 -0.0000036396     2    10     4     3
 -0.0006596248     2    10     4     4
 0.0000006377     2    10     4     5
 -0.2855636564     2    10     5     1
 -0.0006040050     2    10     5     2
 0.0195193892     2    10     5     3
 0.0000200455     2    10     5     4
 -0.0007211675     2    10     5     5
 -0.0017834414     2    10     6     6
 -0.0000047566     2    10     6     8
 0.0000028144     2    10     6     9
 -0.0017834414     2    10     7     7
 0.0000028144     2    10     7     8
 0.0000047566     2    10     7     9
 -0.0000045699     2    10     8     6
 0.0000027040     2    10     8     7
 -0.0023983611     2    10     8     8
 0.0000027040     2    10     9     6
 0.0000045699     2    10     9     7
 -0.0023983611     2    10     9     9
 -0.0000001993     2    10    10     1
 -0.5744625349     2    10    10     2
 0.0000195032     2    10    10     3
 0.0204878007     2    10    10     4
 -0.0000080033     2    10    10     5
 -0.0000002855     3     1     1     2
 -0.5671635024     3     1     1     3
 0.0007177050     3     1     1     4
 -0.0108922779     3     1     1     5
 0.0000996029     3     1     1    10
 0.0002695371     3     1     2     2
 0.0000009865     3     1     2     3
 -0.3393683780     3     1     2     4
 -0.0000000952     3     1     2     5
 -0.0470674143     3     1     2    10
 -0.0000114953     3     1     4     2
 -0.0000002558     3     1     4     3
 -0.0005391695     3     1     4     4
 -0.0000028270     3     1     4     5
 0.0021777420     3     1     4    10
 -0.0027740009     3     1     5     3
 -0.0000038626     3     1     5     4
 -0.0200804310     3     1     5     5
 0.0000172366     3     1     5    10
 -0.0205885743     3     1     6     6
 0.0000156981     3     1     6     8
 -0.0000092886     3     1     6     9
 -0.0205885743     3     1     7     7
 -0.0000092886     3     1     7     8
 -0.0000156981     3     1     7     9
 0.0000173647     3     1     8     6
 -0.0000102747     3     1     8     7
 -0.0176703456     3     1     8     8
 -0.0000102747     3     1     9     6
 -0.0000173647     3     1     9     7
 -0.0176703456     3     1     9     9
 0.0000140992     3     1    10     2
 0.0000029635     3     1    10     3
 0.0034475742     3     1    10     4
 0.0000206693     3     1    10     5
 -0.0184676975     3     1    10    10
 0.0000002855     3     2     1     1
 0.0000009865     3     2     1     3
 -0.3393566217     3     2     1     4
 -0.0000000952     3     2     1     5
 -0.0470819791     3     2     1    10
 -0.0002695371     3     2     2     1
 -0.5671504513     3     2     2     3
 -0.0007176524     3     2     2     4
 -0.0108889464     3     2     2     5
 -0.0000995029     3     2     2    10
 0.0000114953     3     2     4     1
 0.0002427375     3     2     4     3
 -0.0000005697     3     2     4     4
 0.0026721086     3     2     4     5
 0.0000023027     3     2     4    10
 -0.0000029390     3     2     5     3
 0.0036464896     3     2     5     4
 -0.0000211929     3     2     5     5
 -0.0162757452     3     2     5    10
 -0.0000217256     3     2     6     6
 -0.0148238108     3     2     6     8
 0.0087712441     3     2     6     9
 -0.0000217256     3     2     7     7
 0.0087712441     3     2     7     8
 0.0148238107     3     2     7     9
 -0.0163985861     3     2     8     6
 0.0097030381     3     2     8     7
 -0.0000186650     3     2     8     8
 0.0097030381     3     2     9     6
 0.0163985860     3     2     9     7
 -0.0000186650     3     2     9     9
 -0.0000140992     3     2    10     1
 -0.0028095976     3     2    10     3
 0.0000036396     3     2    10     4
 -0.0195193892     3     2    10     5
 -0.0000195032     3     2    10    10
 0.5671635024     3     3     1     1
 -0.0000009865     3     3     1     2
 0.0000002558     3     3     1     4
 0.0027740009     3     3     1     5
 -0.0000029635     3     3     1    10
 -0.0000009865     3     3     2     1
 0.5671504513     3     3     2     2
 -0.0002427375     3     3     2     4
 0.0000029390     3     3     2     5
 0.0028095976     3     3     2    10
 0.0000002558     3     3     4     1
 -0.0002427375     3     3     4     2
 0.2273619220     3     3     4     4
 0.0000000974     3     3     4     5
 0.0124980864     3     3     4    10
 0.0027740009     3     3     5     1
 0.0000029390     3     3     5     2
 0.0000000974     3     3     5     4
 0.3716110068     3     3     5     5
 -0.0000003931     3     3     5    10
 0.3724278671     3     3     6     6
 -0.0000003583     3     3     6     8
 0.0000002120     3     3     6     9
 0.3724278671     3     3     7     7
 0.0000002120     3     3     7     8
 0.0000003583     3     3     7     9
 -0.0000003583     3     3     8     6
 0.0000002120     3     3     8     7
 0.3769669488     3     3     8     8
 0.0000002120     3     3     9     6
 0.0000003583     3     3     9     7
 0.3769669488     3     3     9     9
 -0.0000029635     3     3    10     1
 0.0028095976     3     3    10     2
 0.0124980864     3     3    10     4
 -0.0000003931     3     3    10     5
 0.3919034407     3     3    10    10
 -0.0007177050     3     4     1     1
 0.3393566217     3     4     1     2
 -0.0000002558     3     4     1     3
 0.0000010102     3     4     1     5
 -0.0011195767     3     4     1    10
 0.3393683780     3     4     2     1
 0.0007176524     3     4     2     2
 0.0002427375     3     4     2     3