&FCI NORB= 10,NELEC= 14,MS2=0,
 ORBSYM=1,1,1,1,1,1,1,1,1,1
 ISYM=1,
&END
 0.2645814083     1     1     2     2
 -0.0000000054     1     1     2     3
 0.0007128144     1     1     2     4
 0.0000000430     1     1     2     5
 -0.0043914638     1     1     2    10
 -0.0000000054     1     1     3     2
 0.5867868705     1     1     3     3
 -0.0000057383     1     1     3     4
 -0.0190258310     1     1     3     5
 -0.0000013389     1     1     3    10
 0.0007128144     1     1     4     2
 -0.0000057383     1     1     4     3
 0.5896866022     1     1     4     4
 -0.0000021166     1     1     4     5
 0.0470018232     1     1     4    10
 0.0000000430     1     1     5     2
 -0.0190258310     1     1     5     3
 -0.0000021166     1     1     5     4
 0.5865285789     1     1     5     5
 0.0000047254     1     1     5    10
 0.5743864749     1     1     6     6
 -0.0000000001     1     1     6     7
 -0.0000046946     1     1     6     8
 -0.0000021046     1     1     6     9
 -0.0000000001     1     1     7     6
 0.5743864751     1     1     7     7
 0.0000021044     1     1     7     8
 -0.0000046945     1     1     7     9
 -0.0000046946     1     1     8     6
 0.0000021044     1     1     8     7
 0.5620502988     1     1     8     8
 -0.0000021046     1     1     9     6
 -0.0000046945     1     1     9     7
 0.5620502988     1     1     9     9
 -0.0043914638     1     1    10     2
 -0.0000013389     1     1    10     3
 0.0470018232     1     1    10     4
 0.0000047254     1     1    10     5
 0.5900785254     1     1    10    10
 -0.2645814083     1     2     2     1
 0.0005934196     1     2     2     3
 0.0000000065     1     2     2     4
 -0.0047403580     1     2     2     5
 -0.0000000398     1     2     2    10
 0.0000000054     1     2     3     1
 -0.0000000062     1     2     3     3
 0.3163741678     1     2     3     4
 -0.0000000011     1     2     3     5
 0.0738251025     1     2     3    10
 -0.0007128144     1     2     4     1
 0.3163877771     1     2     4     3
 0.0000000059     1     2     4     4
 0.1166548273     1     2     4     5
 0.0000000017     1     2     4    10
 -0.0000000430     1     2     5     1
 -0.0000000011     1     2     5     3
 0.1166867705     1     2     5     4
 -0.0000000018     1     2     5     5
 -0.2606493107     1     2     5    10
 -0.0000000027     1     2     6     6
 -0.0000000001     1     2     6     7
 0.2588821781     1     2     6     8
 0.1160504733     1     2     6     9
 -0.0000000001     1     2     7     6
 -0.0000000025     1     2     7     7
 -0.1160504734     1     2     7     8
 0.2588821781     1     2     7     9
 0.2588119430     1     2     8     6
 -0.1160189887     1     2     8     7
 0.0000000020     1     2     8     8
 0.1160189887     1     2     9     6
 0.2588119431     1     2     9     7
 0.0000000020     1     2     9     9
 0.0043914638     1     2    10     1
 0.0737994016     1     2    10     3
 0.0000000017     1     2    10     4
 -0.2604959844     1     2    10     5
 0.0000000021     1     2    10    10
 0.0000000054     1     3     2     1
 -0.0005934196     1     3     2     2
 -0.0000129919     1     3     2     4
 0.0000250566     1     3     2    10
 -0.5867868705     1     3     3     1
 0.0000000062     1     3     3     2
 0.0000000054     1     3     3     4
 -0.0045615102     1     3     3     5
 -0.0000000421     1     3     3    10
 0.0000057383     1     3     4     1
 -0.3163877771     1     3     4     2
 0.0010088134     1     3     4     4
 -0.0000000460     1     3     4     5
 -0.0047186907     1     3     4    10
 0.0190258310     1     3     5     1
 0.0000000011     1     3     5     2
 -0.0000000425     1     3     5     4
 0.0203962171     1     3     5     5
 0.0000001765     1     3     5    10
 0.0197199801     1     3     6     6
 -0.0000001556     1     3     6     8
 -0.0000000697     1     3     6     9
 0.0197199801     1     3     7     7
 0.0000000698     1     3     7     8
 -0.0000001556     1     3     7     9
 -0.0000001365     1     3     8     6
 0.0000000612     1     3     8     7
 0.0174701889     1     3     8     8
 -0.0000000612     1     3     9     6
 -0.0000001365     1     3     9     7
 0.0174701889     1     3     9     9
 0.0000013389     1     3    10     1
 -0.0737994016     1     3    10     2
 -0.0035873683     1     3    10     4
 0.0000001409     1     3    10     5
 0.0173398223     1     3    10    10
 -0.0007128144     1     4     2     1
 -0.0000000065     1     4     2     2
 0.0000129919     1     4     2     3
 -0.0000308658     1     4     2     5
 -0.0000000001     1     4     2    10
 0.0000057383     1     4     3     1
 -0.3163741678     1     4     3     2
 -0.0000000054     1     4     3     3
 -0.0000000033     1     4     3     5
 -0.0008525622     1     4     3    10
 -0.5896866022     1     4     4     1
 -0.0000000059     1     4     4     2
 -0.0010088134     1     4     4     3
 0.0012513923     1     4     4     5
 0.0000000130     1     4     4    10
 0.0000021166     1     4     5     1
 -0.1166867705     1     4     5     2
 0.0000000425     1     4     5     3
 -0.0000001770     1     4     5     5
 -0.0189948313     1     4     5    10
 -0.0000001829     1     4     6     6
 0.0164314068     1     4     6     8
 0.0073657930     1     4     6     9
 -0.0000001828     1     4     7     7
 -0.0073657930     1     4     7     8
 0.0164314068     1     4     7     9
 0.0157083165     1     4     8     6
 -0.0070416495     1     4     8     7
 -0.0000001738     1     4     8     8
 0.0070416495     1     4     9     6
 0.0157083165     1     4     9     7
 -0.0000001738     1     4     9     9
 -0.0470018232     1     4    10     1
 -0.0000000017     1     4    10     2
 0.0035873683     1     4    10     3
 -0.0163531003     1     4    10     5
 -0.0000001865     1     4    10    10
 -0.0000000430     1     5     2     1
 0.0047403580     1     5     2     2
 0.0000308658     1     5     2     4
 -0.0001562985     1     5     2    10
 0.0190258310     1     5     3     1
 0.0000000011     1     5     3     2
 0.0045615102     1     5     3     3
 0.0000000033     1     5     3     4
 0.0000000261     1     5     3    10
 0.0000021166     1     5     4     1
 -0.1166548273     1     5     4     2
 0.0000000460     1     5     4     3
 -0.0012513923     1     5     4     4
 -0.0013038847     1     5     4    10
 -0.5865285789     1     5     5     1
 0.0000000018     1     5     5     2
 -0.0203962171     1     5     5     3
 0.0000001770     1     5     5     4
 0.0000000161     1     5     5    10
 0.0050850706     1     5     6     6
 -0.0000000026     1     5     6     8
 -0.0000000011     1     5     6     9
 0.0050850705     1     5     7     7
 0.0000000012     1     5     7     8
 -0.0000000025     1     5     7     9
 -0.0000000065     1     5     8     6
 0.0000000029     1     5     8     7
 0.0042447195     1     5     8     8
 -0.0000000030     1     5     9     6
 -0.0000000064     1     5     9     7
 0.0042447195     1     5     9     9
 -0.0000047254     1     5    10     1
 0.2604959844     1     5    10     2
 -0.0000001409     1     5    10     3
 0.0163531003     1     5    10     4
 0.0104194273     1     5    10    10
 0.0000691365     1     6     2     8
 0.0000309922     1     6     2     9
 -0.0000000114     1     6     3     8
 -0.0000000052     1     6     3     9
 -0.0002830579     1     6     4     8
 -0.0001268879     1     6     4     9
 0.0000000057     1     6     5     8
 0.0000000026     1     6     5     9
 -0.5743864749     1     6     6     1
 0.0000000027     1     6     6     2
 -0.0197199801     1     6     6     3
 0.0000001829     1     6     6     4
 -0.0050850706     1     6     6     5
 0.0000000230     1     6     6    10
 0.0000000001     1     6     7     1
 0.0000000001     1     6     7     2
 0.0000046946     1     6     8     1
 -0.2588119430     1     6     8     2
 0.0000001365     1     6     8     3
 -0.0157083165     1     6     8     4
 0.0000000065     1     6     8     5
 -0.0062205953     1     6     8    10
 0.0000021046     1     6     9     1
 -0.1160189887     1     6     9     2
 0.0000000612     1     6     9     3
 -0.0070416495     1     6     9     4
 0.0000000030     1     6     9     5
 -0.0027885389     1     6     9    10
 -0.0001222808     1     6    10     8
 -0.0000548155     1     6    10     9
 -0.0000309922     1     7     2     8
 0.0000691365     1     7     2     9
 0.0000000052     1     7     3     8
 -0.0000000114     1     7     3     9
 0.0001268879     1     7     4     8
 -0.0002830579     1     7     4     9
 -0.0000000026     1     7     5     8
 0.0000000057     1     7     5     9
 0.0000000001     1     7     6     1
 0.0000000001     1     7     6     2
 -0.5743864751     1     7     7     1
 0.0000000025     1     7     7     2
 -0.0197199801     1     7     7     3
 0.0000001828     1     7     7     4
 -0.0050850705     1     7     7     5
 0.0000000228     1     7     7    10
 -0.0000021044     1     7     8     1
 0.1160189887     1     7     8     2
 -0.0000000612     1     7     8     3
 0.0070416495     1     7     8     4
 -0.0000000029     1     7     8     5
 0.0027885389     1     7     8    10
 0.0000046945     1     7     9     1
 -0.2588119431     1     7     9     2
 0.0000001365     1     7     9     3
 -0.0157083165     1     7     9     4
 0.0000000064     1     7     9     5
 -0.0062205953     1     7     9    10
 0.0000548155     1     7    10     8
 -0.0001222808     1     7    10     9
 -0.0000691365     1     8     2     6
 0.0000309922     1     8     2     7
 0.0000000114     1     8     3     6
 -0.0000000052     1     8     3     7
 0.0002830579     1     8     4     6
 -0.0001268879     1     8     4     7
 -0.0000000057     1     8     5     6
 0.0000000026     1     8     5     7
 0.0000046946     1     8     6     1
 -0.2588821781     1     8     6     2
 0.0000001556     1     8     6     3
 -0.0164314068     1     8     6     4
 0.0000000026     1     8     6     5
 -0.0063797200     1     8     6    10
 -0.0000021044     1     8     7     1
 0.1160504734     1     8     7     2
 -0.0000000698     1     8     7     3
 0.0073657930     1     8     7     4
 -0.0000000012     1     8     7     5
 0.0028598706     1     8     7    10
 -0.5620502988     1     8     8     1
 -0.0000000020     1     8     8     2
 -0.0174701889     1     8     8     3
 0.0000001738     1     8     8     4
 -0.0042447195     1     8     8     5
 0.0000000346     1     8     8    10
 -0.0000000001     1     8     9    10
 0.0001222808     1     8    10     6
 -0.0000548155     1     8    10     7
 -0.0000309922     1     9     2     6
 -0.0000691365     1     9     2     7
 0.0000000052     1     9     3     6
 0.0000000114     1     9     3     7
 0.0001268879     1     9     4     6
 0.0002830579     1     9     4     7
 -0.0000000026     1     9     5     6
 -0.0000000057     1     9     5     7
 0.0000021046     1     9     6     1
 -0.1160504733     1     9     6     2
 0.0000000697     1     9     6     3
 -0.0073657930     1     9     6     4
 0.0000000011     1     9     6     5
 -0.0028598706     1     9     6    10
 0.0000046945     1     9     7     1
 -0.2588821781     1     9     7     2
 0.0000001556     1     9     7     3
 -0.0164314068     1     9     7     4
 0.0000000025     1     9     7     5
 -0.0063797200     1     9     7    10
 -0.0000000001     1     9     8    10
 -0.5620502988     1     9     9     1
 -0.0000000020     1     9     9     2
 -0.0174701889     1     9     9     3
 0.0000001738     1     9     9     4
 -0.0042447195     1     9     9     5
 0.0000000346     1     9     9    10
 0.0000548155     1     9    10     6
 0.0001222808     1     9    10     7
 0.0043914638     1    10     2     1
 0.0000000398     1    10     2     2
 -0.0000250566     1    10     2     3
 0.0000000001     1    10     2     4
 0.0001562985     1    10     2     5
 0.0000013389     1    10     3     1
 -0.0738251025     1    10     3     2
 0.0000000421     1    10     3     3
 0.0008525622     1    10     3     4
 -0.0000000261     1    10     3     5
 -0.0470018232     1    10     4     1
 -0.0000000017     1    10     4     2
 0.0047186907     1    10     4     3
 -0.0000000130     1    10     4     4
 0.0013038847     1    10     4     5
 -0.0000047254     1    10     5     1
 0.2606493107     1    10     5     2
 -0.0000001765     1    10     5     3
 0.0189948313     1    10     5     4
 -0.0000000161     1    10     5     5
 -0.0000000230     1    10     6     6
 0.0063797200     1    10     6     8
 0.0028598706     1    10     6     9
 -0.0000000228     1    10     7     7
 -0.0028598706     1    10     7     8
 0.0063797200     1    10     7     9
 0.0062205953     1    10     8     6
 -0.0027885389     1    10     8     7
 -0.0000000346     1    10     8     8
 0.0000000001     1    10     8     9
 0.0027885389     1    10     9     6
 0.0062205953     1    10     9     7
 0.0000000001     1    10     9     8
 -0.0000000346     1    10     9     9
 -0.5900785254     1    10    10     1
 -0.0000000021     1    10    10     2
 -0.0173398223     1    10    10     3
 0.0000001865     1    10    10     4
 -0.0104194273     1    10    10     5
 -0.2645814083     2     1     1     2
 0.0000000054     2     1     1     3
 -0.0007128144     2     1     1     4
 -0.0000000430     2     1     1     5
 0.0043914638     2     1     1    10
 0.0005934196     2     1     3     2
 -0.0000000062     2     1     3     3
 0.3163877771     2     1     3     4
 -0.0000000011     2     1     3     5
 0.0737994016     2     1     3    10
 0.0000000065     2     1     4     2
 0.3163741678     2     1     4     3
 0.0000000059     2     1     4     4
 0.1166867705     2     1     4     5
 0.0000000017     2     1     4    10
 -0.0047403580     2     1     5     2
 -0.0000000011     2     1     5     3
 0.1166548273     2     1     5     4
 -0.0000000018     2     1     5     5
 -0.2604959844     2     1     5    10
 -0.0000000027     2     1     6     6
 -0.0000000001     2     1     6     7
 0.2588119430     2     1     6     8
 0.1160189887     2     1     6     9
 -0.0000000001     2     1     7     6
 -0.0000000025     2     1     7     7
 -0.1160189887     2     1     7     8
 0.2588119431     2     1     7     9
 0.2588821781     2     1     8     6
 -0.1160504734     2     1     8     7
 0.0000000020     2     1     8     8
 0.1160504733     2     1     9     6
 0.2588821781     2     1     9     7
 0.0000000020     2     1     9     9
 -0.0000000398     2     1    10     2
 0.0738251025     2     1    10     3
 0.0000000017     2     1    10     4
 -0.2606493107     2     1    10     5
 0.0000000021     2     1    10    10
 0.2645814083     2     2     1     1
 -0.0005934196     2     2     1     3
 -0.0000000065     2     2     1     4
 0.0047403580     2     2     1     5
 0.0000000398     2     2     1    10
 -0.0005934196     2     2     3     1
 0.5867728186     2     2     3     3
 0.0000057382     2     2     3     4
 -0.0190299966     2     2     3     5
 0.0000013386     2     2     3    10
 -0.0000000065     2     2     4     1
 0.0000057382     2     2     4     3
 0.5896926341     2     2     4     4
 0.0000021155     2     2     4     5
 0.0470101475     2     2     4    10
 0.0047403580     2     2     5     1
 -0.0190299966     2     2     5     3
 0.0000021155     2     2     5     4
 0.5866967077     2     2     5     5
 -0.0000047267     2     2     5    10
 0.5744727950     2     2     6     6
 -0.0000000001     2     2     6     7
 0.0000046948     2     2     6     8
 0.0000021045     2     2     6     9
 -0.0000000001     2     2     7     6
 0.5744727953     2     2     7     7
 -0.0000021047     2     2     7     8
 0.0000046950     2     2     7     9
 0.0000046948     2     2     8     6
 -0.0000021047     2     2     8     7
 0.5619923607     2     2     8     8
 0.0000021045     2     2     9     6
 0.0000046950     2     2     9     7
 0.5619923607     2     2     9     9
 0.0000000398     2     2    10     1
 0.0000013386     2     2    10     3
 0.0470101475     2     2    10     4
 -0.0000047267     2     2    10     5
 0.5899288692     2     2    10    10
 -0.0000000054     2     3     1     1
 0.0005934196     2     3     1     2
 0.0000129919     2     3     1     4
 -0.0000250566     2     3     1    10
 0.0000000062     2     3     3     1
 -0.5867728186     2     3     3     2
 -0.0005931778     2     3     3     4
 -0.0000000414     2     3     3     5
 0.0046501976     2     3     3    10
 -0.3163741678     2     3     4     1
 -0.0000057382     2     3     4     2
 0.0000000091     2     3     4     4
 0.0050950676     2     3     4     5
 -0.0000000428     2     3     4    10
 0.0000000011     2     3     5     1
 0.0190299966     2     3     5     2
 0.0047056374     2     3     5     4
 0.0000001855     2     3     5     5
 -0.0195204826     2     3     5    10
 0.0000001785     2     3     6     6
 0.0171361268     2     3     6     8
 0.0076817015     2     3     6     9
 0.0000001785     2     3     7     7
 -0.0076817015     2     3     7     8
 0.0171361268     2     3     7     9
 0.0150324758     2     3     8     6
 -0.0067386869     2     3     8     7
 0.0000001583     2     3     8     8
 0.0067386869     2     3     9     6
 0.0150324759     2     3     9     7
 0.0000001583     2     3     9     9
 -0.0738251025     2     3    10     1
 -0.0000013386     2     3    10     2
 -0.0000000326     2     3    10     4
 -0.0155991374     2     3    10     5
 0.0000001578     2     3    10    10
 0.0007128144     2     4     1     1
 0.0000000065     2     4     1     2
 -0.0000129919     2     4     1     3
 0.0000308658     2     4     1     5
 0.0000000001     2     4     1    10
 -0.3163877771     2     4     3     1
 -0.0000057382     2     4     3     2
 0.0005931778     2     4     3     3
 0.0003559610     2     4     3     5
 -0.0000000077     2     4     3    10
 -0.0000000059     2     4     4     1
 -0.5896926341     2     4     4     2
 -0.0000000091     2     4     4     3
 0.0000000114     2     4     4     5
 -0.0014427680     2     4     4    10
 -0.1166548273     2     4     5     1
 -0.0000021155     2     4     5     2
 -0.0047056374     2     4     5     3
 0.0196299602     2     4     5     5
 -0.0000001734     2     4     5    10
 0.0201708152     2     4     6     6
 0.0000001492     2     4     6     8
 0.0000000668     2     4     6     9
 0.0201708152     2     4     7     7
 -0.0000000668     2     4     7     8
 0.0000001492     2     4     7     9
 0.0000001426     2     4     8     6
 -0.0000000639     2     4     8     7
 0.0191882374     2     4     8     8
 0.0000000640     2     4     9     6
 0.0000001427     2     4     9     7
 0.0191882374     2     4     9     9
 -0.0000000017     2     4    10     1
 -0.0470101475     2     4    10     2
 0.0000000326     2     4    10     3
 -0.0000001492     2     4    10     5
 0.0207117289     2     4    10    10
 0.0000000430     2     5     1     1
 -0.0047403580     2     5     1     2
 -0.0000308658     2     5     1     4
 0.0001562985     2     5     1    10
 0.0000000011     2     5     3     1
 0.0190299966     2     5     3     2
 0.0000000414     2     5     3     3
 -0.0003559610     2     5     3     4
 -0.0028639773     2     5     3    10
 -0.1166867705     2     5     4     1
 -0.0000021155     2     5     4     2
 -0.0050950676     2     5     4     3
 -0.0000000114     2     5     4     4
 -0.0000000120     2     5     4    10
 0.0000000018     2     5     5     1
 -0.5866967077     2     5     5     2
 -0.0000001855     2     5     5     3
 -0.0196299602     2     5     5     4
 -0.0018290083     2     5     5    10
 0.0000000461     2     5     6     6
 0.0002878406     2     5     6     8
 0.0001290318     2     5     6     9
 0.0000000461     2     5     7     7
 -0.0001290318     2     5     7     8
 0.0002878406     2     5     7     9
 0.0007222499     2     5     8     6
 -0.0003237668     2     5     8     7
 0.0000000385     2     5     8     8
 -0.0000000001     2     5     8     9
 0.0003237668     2     5     9     6
 0.0007222500     2     5     9     7
 -0.0000000001     2     5     9     8
 0.0000000386     2     5     9     9
 0.2606493107     2     5    10     1
 0.0000047267     2     5    10     2
 0.0155991374     2     5    10     3
 0.0000001492     2     5    10     4
 0.0000000957     2     5    10    10
 -0.0000691365     2     6     1     8
 -0.0000309922     2     6     1     9
 0.0012641464     2     6     3     8
 0.0005666856     2     6     3     9
 -0.0000000026     2     6     4     8
 -0.0000000011     2     6     4     9
 -0.0006304760     2     6     5     8
 -0.0002826268     2     6     5     9
 0.0000000027     2     6     6     1
 -0.5744727950     2     6     6     2
 -0.0000001785     2     6     6     3
 -0.0201708152     2     6     6     4
 -0.0000000461     2     6     6     5
 -0.0025193129     2     6     6    10
 0.0000000001     2     6     7     1
 0.0000000001     2     6     7     2
 -0.2588821781     2     6     8     1
 -0.0000046948     2     6     8     2
 -0.0150324758     2     6     8     3
 -0.0000001426     2     6     8     4
 -0.0007222499     2     6     8     5
 -0.0000000564     2     6     8    10
 -0.1160504733     2     6     9     1
 -0.0000021045     2     6     9     2
 -0.0067386869     2     6     9     3
 -0.0000000640     2     6     9     4
 -0.0003237668     2     6     9     5
 -0.0000000253     2     6     9    10
 -0.0000000012     2     6    10     8
 -0.0000000005     2     6    10     9
 0.0000309922     2     7     1     8
 -0.0000691365     2     7     1     9
 -0.0005666856     2     7     3     8
 0.0012641464     2     7     3     9
 0.0000000011     2     7     4     8
 -0.0000000026     2     7     4     9
 0.0002826268     2     7     5     8
 -0.0006304760     2     7     5     9
 0.0000000001     2     7     6     1
 0.0000000001     2     7     6     2
 0.0000000025     2     7     7     1
 -0.5744727953     2     7     7     2
 -0.0000001785     2     7     7     3
 -0.0201708152     2     7     7     4
 -0.0000000461     2     7     7     5
 -0.0025193130     2     7     7    10
 0.1160504734     2     7     8     1
 0.0000021047     2     7     8     2
 0.0067386869     2     7     8     3
 0.0000000639     2     7     8     4
 0.0003237668     2     7     8     5
 0.0000000252     2     7     8    10
 -0.2588821781     2     7     9     1
 -0.0000046950     2     7     9     2
 -0.0150324759     2     7     9     3
 -0.0000001427     2     7     9     4
 -0.0007222500     2     7     9     5
 -0.0000000564     2     7     9    10
 0.0000000005     2     7    10     8
 -0.0000000012     2     7    10     9
 0.0000691365     2     8     1     6
 -0.0000309922     2     8     1     7
 -0.0012641464     2     8     3     6
 0.0005666856     2     8     3     7
 0.0000000026     2     8     4     6
 -0.0000000011     2     8     4     7
 0.0006304760     2     8     5     6
 -0.0002826268     2     8     5     7
 -0.2588119430     2     8     6     1
 -0.0000046948     2     8     6     2
 -0.0171361268     2     8     6     3
 -0.0000001492     2     8     6     4
 -0.0002878406     2     8     6     5
 -0.0000000578     2     8     6    10
 0.1160189887     2     8     7     1
 0.0000021047     2     8     7     2
 0.0076817015     2     8     7     3
 0.0000000668     2     8     7     4
 0.0001290318     2     8     7     5
 0.0000000258     2     8     7    10
 -0.0000000020     2     8     8     1
 -0.5619923607     2     8     8     2
 -0.0000001583     2     8     8     3
 -0.0191882374     2     8     8     4
 -0.0000000385     2     8     8     5
 -0.0038233876     2     8     8    10
 0.0000000001     2     8     9     5
 0.0000000012     2     8    10     6
 -0.0000000005     2     8    10     7
 0.0000309922     2     9     1     6
 0.0000691365     2     9     1     7
 -0.0005666856     2     9     3     6
 -0.0012641464     2     9     3     7
 0.0000000011     2     9     4     6
 0.0000000026     2     9     4     7
 0.0002826268     2     9     5     6
 0.0006304760     2     9     5     7
 -0.1160189887     2     9     6     1
 -0.0000021045     2     9     6     2
 -0.0076817015     2     9     6     3
 -0.0000000668     2     9     6     4
 -0.0001290318     2     9     6     5
 -0.0000000259     2     9     6    10
 -0.2588119431     2     9     7     1
 -0.0000046950     2     9     7     2
 -0.0171361268     2     9     7     3
 -0.0000001492     2     9     7     4
 -0.0002878406     2     9     7     5
 -0.0000000578     2     9     7    10
 0.0000000001     2     9     8     5
 -0.0000000020     2     9     9     1
 -0.5619923607     2     9     9     2
 -0.0000001583     2     9     9     3
 -0.0191882374     2     9     9     4
 -0.0000000386     2     9     9     5
 -0.0038233876     2     9     9    10
 0.0000000005     2     9    10     6
 0.0000000012     2     9    10     7
 -0.0043914638     2    10     1     1
 -0.0000000398     2    10     1     2
 0.0000250566     2    10     1     3
 -0.0000000001     2    10     1     4
 -0.0001562985     2    10     1     5
 -0.0737994016     2    10     3     1
 -0.0000013386     2    10     3     2
 -0.0046501976     2    10     3     3
 0.0000000077     2    10     3     4
 0.0028639773     2    10     3     5
 -0.0000000017     2    10     4     1
 -0.0470101475     2    10     4     2
 0.0000000428     2    10     4     3
 0.0014427680     2    10     4     4
 0.0000000120     2    10     4     5
 0.2604959844     2    10     5     1
 0.0000047267     2    10     5     2
 0.0195204826     2    10     5     3
 0.0000001734     2    10     5     4
 0.0018290083     2    10     5     5
 0.0025193129     2    10     6     6
 0.0000000578     2    10     6     8
 0.0000000259     2    10     6     9
 0.0025193130     2    10     7     7
 -0.0000000258     2    10     7     8
 0.0000000578     2    10     7     9
 0.0000000564     2    10     8     6
 -0.0000000252     2    10     8     7
 0.0038233876     2    10     8     8
 0.0000000253     2    10     9     6
 0.0000000564     2    10     9     7
 0.0038233876     2    10     9     9
 -0.0000000021     2    10    10     1
 -0.5899288692     2    10    10     2
 -0.0000001578     2    10    10     3
 -0.0207117289     2    10    10     4
 -0.0000000957     2    10    10     5
 0.0000000054     3     1     1     2
 -0.5867868705     3     1     1     3
 0.0000057383     3     1     1     4
 0.0190258310     3     1     1     5
 0.0000013389     3     1     1    10
 -0.0005934196     3     1     2     2
 0.0000000062     3     1     2     3
 -0.3163877771     3     1     2     4
 0.0000000011     3     1     2     5
 -0.0737994016     3     1     2    10
 -0.0000129919     3     1     4     2
 0.0000000054     3     1     4     3
 0.0010088134     3     1     4     4
 -0.0000000425     3     1     4     5
 -0.0035873683     3     1     4    10
 -0.0045615102     3     1     5     3
 -0.0000000460     3     1     5     4
 0.0203962171     3     1     5     5
 0.0000001409     3     1     5    10
 0.0197199801     3     1     6     6
 -0.0000001365     3     1     6     8
 -0.0000000612     3     1     6     9
 0.0197199801     3     1     7     7
 0.0000000612     3     1     7     8
 -0.0000001365     3     1     7     9
 -0.0000001556     3     1     8     6
 0.0000000698     3     1     8     7
 0.0174701889     3     1     8     8
 -0.0000000697     3     1     9     6
 -0.0000001556     3     1     9     7
 0.0174701889     3     1     9     9
 0.0000250566     3     1    10     2
 -0.0000000421     3     1    10     3
 -0.0047186907     3     1    10     4
 0.0000001765     3     1    10     5
 0.0173398223     3     1    10    10
 -0.0000000054     3     2     1     1
 0.0000000062     3     2     1     3
 -0.3163741678     3     2     1     4
 0.0000000011     3     2     1     5
 -0.0738251025     3     2     1    10
 0.0005934196     3     2     2     1
 -0.5867728186     3     2     2     3
 -0.0000057382     3     2     2     4
 0.0190299966     3     2     2     5
 -0.0000013386     3     2     2    10
 0.0000129919     3     2     4     1
 -0.0005931778     3     2     4     3
 0.0000000091     3     2     4     4
 0.0047056374     3     2     4     5
 -0.0000000326     3     2     4    10
 -0.0000000414     3     2     5     3
 0.0050950676     3     2     5     4
 0.0000001855     3     2     5     5
 -0.0155991374     3     2     5    10
 0.0000001785     3     2     6     6
 0.0150324758     3     2     6     8
 0.0067386869     3     2     6     9
 0.0000001785     3     2     7     7
 -0.0067386869     3     2     7     8
 0.0150324759     3     2     7     9
 0.0171361268     3     2     8     6
 -0.0076817015     3     2     8     7
 0.0000001583     3     2     8     8
 0.0076817015     3     2     9     6
 0.0171361268     3     2     9     7
 0.0000001583     3     2     9     9
 -0.0000250566     3     2    10     1
 0.0046501976     3     2    10     3
 -0.0000000428     3     2    10     4
 -0.0195204826     3     2    10     5
 0.0000001578     3     2    10    10
 0.5867868705     3     3     1     1
 -0.0000000062     3     3     1     2
 -0.0000000054     3     3     1     4
 0.0045615102     3     3     1     5
 0.0000000421     3     3     1    10
 -0.0000000062     3     3     2     1
 0.5867728186     3     3     2     2
 0.0005931778     3     3     2     4
 0.0000000414     3     3     2     5
 -0.0046501976     3     3     2    10
 -0.0000000054     3     3     4     1
 0.0005931778     3     3     4     2
 0.2643641840     3     3     4     4
 -0.0000000013     3     3     4     5
 0.0114073739     3     3     4    10
 0.0045615102     3     3     5     1
 0.0000000414     3     3     5     2