&FCI NORB= 10,NELEC= 14,MS2=0,
 ORBSYM=1,1,1,1,1,1,1,1,1,1
 ISYM=1,
&END
 0.2204599164     1     1     2     2
 -0.0000000003     1     1     2     3
 0.0002811595     1     1     2     4
 0.0000000050     1     1     2     5
 -0.0030072618     1     1     2    10
 -0.0000000003     1     1     3     2
 0.5622646342     1     1     3     3
 -0.0000010385     1     1     3     4
 -0.0096277340     1     1     3     5
 -0.0000001226     1     1     3    10
 0.0002811595     1     1     4     2
 -0.0000010385     1     1     4     3
 0.5698956941     1     1     4     4
 -0.0000002178     1     1     4     5
 0.0336808287     1     1     4    10
 0.0000000050     1     1     5     2
 -0.0096277340     1     1     5     3
 -0.0000002178     1     1     5     4
 0.5594753916     1     1     5     5
 0.0000008808     1     1     5    10
 0.5625128507     1     1     6     6
 -0.0000000003     1     1     6     7
 -0.0000005960     1     1     6     8
 0.0000007141     1     1     6     9
 -0.0000000003     1     1     7     6
 0.5625128514     1     1     7     7
 -0.0000007142     1     1     7     8
 -0.0000005963     1     1     7     9
 -0.0000005960     1     1     8     6
 -0.0000007142     1     1     8     7
 0.5429176525     1     1     8     8
 0.0000007141     1     1     9     6
 -0.0000005963     1     1     9     7
 0.5429176525     1     1     9     9
 -0.0030072618     1     1    10     2
 -0.0000001226     1     1    10     3
 0.0336808287     1     1    10     4
 0.0000008808     1     1    10     5
 0.5685149125     1     1    10    10
 -0.2204599164     1     2     2     1
 0.0002159177     1     2     2     3
 0.0000000004     1     2     2     4
 -0.0033002325     1     2     2     5
 -0.0000000045     1     2     2    10
 0.0000000003     1     2     3     1
 -0.0000000023     1     2     3     3
 0.3449243901     1     2     3     4
 -0.0000000002     1     2     3     5
 0.0407743903     1     2     3    10
 -0.0002811595     1     2     4     1
 0.3449361983     1     2     4     3
 0.0000000006     1     2     4     4
 0.0723824095     1     2     4     5
 -0.0000000004     1     2     4    10
 -0.0000000050     1     2     5     1
 -0.0000000002     1     2     5     3
 0.0723958343     1     2     5     4
 -0.0000000004     1     2     5     5
 -0.2929043127     1     2     5    10
 0.0000000001     1     2     6     6
 0.0000000005     1     2     6     7
 0.1981754742     1     2     6     8
 -0.2374043754     1     2     6     9
 0.0000000005     1     2     7     6
 -0.0000000014     1     2     7     7
 0.2374043755     1     2     7     8
 0.1981754746     1     2     7     9
 0.1981482760     1     2     8     6
 0.2373717934     1     2     8     7
 0.0000000004     1     2     8     8
 -0.0000000002     1     2     8     9
 -0.2373717933     1     2     9     6
 0.1981482764     1     2     9     7
 -0.0000000002     1     2     9     8
 0.0000000002     1     2     9     9
 0.0030072618     1     2    10     1
 0.0407615838     1     2    10     3
 -0.0000000004     1     2    10     4
 -0.2928156682     1     2    10     5
 0.0000000002     1     2    10    10
 0.0000000003     1     3     2     1
 -0.0002159177     1     3     2     2
 -0.0000116309     1     3     2     4
 0.0000123896     1     3     2    10
 -0.5622646342     1     3     3     1
 0.0000000023     1     3     3     2
 0.0000000004     1     3     3     4
 -0.0023875567     1     3     3     5
 -0.0000000037     1     3     3    10
 0.0000010385     1     3     4     1
 -0.3449361983     1     3     4     2
 0.0004624630     1     3     4     4
 -0.0000000049     1     3     4     5
 -0.0031123231     1     3     4    10
 0.0096277340     1     3     5     1
 0.0000000002     1     3     5     2
 -0.0000000034     1     3     5     4
 0.0201305627     1     3     5     5
 0.0000000295     1     3     5    10
 0.0208128643     1     3     6     6
 -0.0000000185     1     3     6     8
 0.0000000222     1     3     6     9
 0.0208128643     1     3     7     7
 -0.0000000222     1     3     7     8
 -0.0000000185     1     3     7     9
 -0.0000000168     1     3     8     6
 -0.0000000201     1     3     8     7
 0.0176859384     1     3     8     8
 0.0000000202     1     3     9     6
 -0.0000000168     1     3     9     7
 0.0176859384     1     3     9     9
 0.0000001226     1     3    10     1
 -0.0407615838     1     3    10     2
 -0.0018760104     1     3    10     4
 0.0000000252     1     3    10     5
 0.0185582027     1     3    10    10
 -0.0002811595     1     4     2     1
 -0.0000000004     1     4     2     2
 0.0000116309     1     4     2     3
 -0.0000127575     1     4     2     5
 0.0000010385     1     4     3     1
 -0.3449243901     1     4     3     2
 -0.0000000004     1     4     3     3
 -0.0000000015     1     4     3     5
 -0.0011193287     1     4     3    10
 -0.5698956941     1     4     4     1
 -0.0000000006     1     4     4     2
 -0.0004624630     1     4     4     3
 0.0004522717     1     4     4     5
 0.0000000006     1     4     4    10
 0.0000002178     1     4     5     1
 -0.0723958343     1     4     5     2
 0.0000000034     1     4     5     3
 -0.0000000298     1     4     5     5
 -0.0189716661     1     4     5    10
 -0.0000000316     1     4     6     6
 0.0000000001     1     4     6     7
 0.0121213437     1     4     6     8
 -0.0145207678     1     4     6     9
 0.0000000001     1     4     7     6
 -0.0000000317     1     4     7     7
 0.0145207678     1     4     7     8
 0.0121213438     1     4     7     9
 0.0115278931     1     4     8     6
 0.0138098434     1     4     8     7
 -0.0000000281     1     4     8     8
 -0.0138098434     1     4     9     6
 0.0115278931     1     4     9     7
 -0.0000000281     1     4     9     9
 -0.0336808287     1     4    10     1
 0.0000000004     1     4    10     2
 0.0018760104     1     4    10     3
 -0.0172910861     1     4    10     5
 -0.0000000306     1     4    10    10
 -0.0000000050     1     5     2     1
 0.0033002325     1     5     2     2
 0.0000127575     1     5     2     4
 -0.0000895951     1     5     2    10
 0.0096277340     1     5     3     1
 0.0000000002     1     5     3     2
 0.0023875567     1     5     3     3
 0.0000000015     1     5     3     4
 0.0000000029     1     5     3    10
 0.0000002178     1     5     4     1
 -0.0723824095     1     5     4     2
 0.0000000049     1     5     4     3
 -0.0004522717     1     5     4     4
 -0.0004722200     1     5     4    10
 -0.5594753916     1     5     5     1
 0.0000000004     1     5     5     2
 -0.0201305627     1     5     5     3
 0.0000000298     1     5     5     4
 0.0000000009     1     5     5    10
 0.0031118222     1     5     6     6
 0.0000000002     1     5     6     8
 -0.0000000001     1     5     6     9
 0.0031118221     1     5     7     7
 0.0000000001     1     5     7     8
 0.0000000002     1     5     7     9
 0.0000000002     1     5     8     6
 0.0000000003     1     5     8     7
 0.0025407673     1     5     8     8
 -0.0000000003     1     5     9     6
 0.0000000003     1     5     9     7
 0.0025407673     1     5     9     9
 -0.0000008808     1     5    10     1
 0.2928156682     1     5    10     2
 -0.0000000252     1     5    10     3
 0.0172910861     1     5    10     4
 0.0067958406     1     5    10    10
 0.0000277615     1     6     2     8
 -0.0000332568     1     6     2     9
 -0.0000000008     1     6     3     8
 0.0000000010     1     6     3     9
 -0.0000361742     1     6     4     8
 0.0000433349     1     6     4     9
 0.0000000003     1     6     5     8
 -0.0000000003     1     6     5     9
 -0.5625128507     1     6     6     1
 -0.0000000001     1     6     6     2
 -0.0208128643     1     6     6     3
 0.0000000316     1     6     6     4
 -0.0031118222     1     6     6     5
 0.0000000024     1     6     6    10
 0.0000000003     1     6     7     1
 -0.0000000005     1     6     7     2
 -0.0000000001     1     6     7     4
 0.0000005960     1     6     8     1
 -0.1981482760     1     6     8     2
 0.0000000168     1     6     8     3
 -0.0115278931     1     6     8     4
 -0.0000000002     1     6     8     5
 -0.0029146533     1     6     8    10
 -0.0000007141     1     6     9     1
 0.2373717933     1     6     9     2
 -0.0000000202     1     6     9     3
 0.0138098434     1     6     9     4
 0.0000000003     1     6     9     5
 0.0034916098     1     6     9    10
 -0.0000798814     1     6    10     8
 0.0000956939     1     6    10     9
 0.0000332568     1     7     2     8
 0.0000277615     1     7     2     9
 -0.0000000010     1     7     3     8
 -0.0000000009     1     7     3     9
 -0.0000433349     1     7     4     8
 -0.0000361742     1     7     4     9
 0.0000000003     1     7     5     8
 0.0000000003     1     7     5     9
 0.0000000003     1     7     6     1
 -0.0000000005     1     7     6     2
 -0.0000000001     1     7     6     4
 -0.5625128514     1     7     7     1
 0.0000000014     1     7     7     2
 -0.0208128643     1     7     7     3
 0.0000000317     1     7     7     4
 -0.0031118221     1     7     7     5
 0.0000000024     1     7     7    10
 0.0000007142     1     7     8     1
 -0.2373717934     1     7     8     2
 0.0000000201     1     7     8     3
 -0.0138098434     1     7     8     4
 -0.0000000003     1     7     8     5
 -0.0034916098     1     7     8    10
 0.0000005963     1     7     9     1
 -0.1981482764     1     7     9     2
 0.0000000168     1     7     9     3
 -0.0115278931     1     7     9     4
 -0.0000000003     1     7     9     5
 -0.0029146533     1     7     9    10
 -0.0000956939     1     7    10     8
 -0.0000798814     1     7    10     9
 -0.0000277615     1     8     2     6
 -0.0000332568     1     8     2     7
 0.0000000008     1     8     3     6
 0.0000000010     1     8     3     7
 0.0000361742     1     8     4     6
 0.0000433349     1     8     4     7
 -0.0000000003     1     8     5     6
 -0.0000000003     1     8     5     7
 0.0000005960     1     8     6     1
 -0.1981754742     1     8     6     2
 0.0000000185     1     8     6     3
 -0.0121213437     1     8     6     4
 -0.0000000002     1     8     6     5
 -0.0030419132     1     8     6    10
 0.0000007142     1     8     7     1
 -0.2374043755     1     8     7     2
 0.0000000222     1     8     7     3
 -0.0145207678     1     8     7     4
 -0.0000000001     1     8     7     5
 -0.0036440609     1     8     7    10
 -0.5429176525     1     8     8     1
 -0.0000000004     1     8     8     2
 -0.0176859384     1     8     8     3
 0.0000000281     1     8     8     4
 -0.0025407673     1     8     8     5
 0.0000000031     1     8     8    10
 0.0000000002     1     8     9     2
 0.0000798814     1     8    10     6
 0.0000956939     1     8    10     7
 0.0000332568     1     9     2     6
 -0.0000277615     1     9     2     7
 -0.0000000010     1     9     3     6
 0.0000000009     1     9     3     7
 -0.0000433349     1     9     4     6
 0.0000361742     1     9     4     7
 0.0000000003     1     9     5     6
 -0.0000000003     1     9     5     7
 -0.0000007141     1     9     6     1
 0.2374043754     1     9     6     2
 -0.0000000222     1     9     6     3
 0.0145207678     1     9     6     4
 0.0000000001     1     9     6     5
 0.0036440609     1     9     6    10
 0.0000005963     1     9     7     1
 -0.1981754746     1     9     7     2
 0.0000000185     1     9     7     3
 -0.0121213438     1     9     7     4
 -0.0000000002     1     9     7     5
 -0.0030419132     1     9     7    10
 0.0000000002     1     9     8     2
 -0.5429176525     1     9     9     1
 -0.0000000002     1     9     9     2
 -0.0176859384     1     9     9     3
 0.0000000281     1     9     9     4
 -0.0025407673     1     9     9     5
 0.0000000031     1     9     9    10
 -0.0000956939     1     9    10     6
 0.0000798814     1     9    10     7
 0.0030072618     1    10     2     1
 0.0000000045     1    10     2     2
 -0.0000123896     1    10     2     3
 0.0000895951     1    10     2     5
 0.0000001226     1    10     3     1
 -0.0407743903     1    10     3     2
 0.0000000037     1    10     3     3
 0.0011193287     1    10     3     4
 -0.0000000029     1    10     3     5
 -0.0336808287     1    10     4     1
 0.0000000004     1    10     4     2
 0.0031123231     1    10     4     3
 -0.0000000006     1    10     4     4
 0.0004722200     1    10     4     5
 -0.0000008808     1    10     5     1
 0.2929043127     1    10     5     2
 -0.0000000295     1    10     5     3
 0.0189716661     1    10     5     4
 -0.0000000009     1    10     5     5
 -0.0000000024     1    10     6     6
 0.0030419132     1    10     6     8
 -0.0036440609     1    10     6     9
 -0.0000000024     1    10     7     7
 0.0036440609     1    10     7     8
 0.0030419132     1    10     7     9
 0.0029146533     1    10     8     6
 0.0034916098     1    10     8     7
 -0.0000000031     1    10     8     8
 -0.0034916098     1    10     9     6
 0.0029146533     1    10     9     7
 -0.0000000031     1    10     9     9
 -0.5685149125     1    10    10     1
 -0.0000000002     1    10    10     2
 -0.0185582027     1    10    10     3
 0.0000000306     1    10    10     4
 -0.0067958406     1    10    10     5
 -0.2204599164     2     1     1     2
 0.0000000003     2     1     1     3
 -0.0002811595     2     1     1     4
 -0.0000000050     2     1     1     5
 0.0030072618     2     1     1    10
 0.0002159177     2     1     3     2
 -0.0000000023     2     1     3     3
 0.3449361983     2     1     3     4
 -0.0000000002     2     1     3     5
 0.0407615838     2     1     3    10
 0.0000000004     2     1     4     2
 0.3449243901     2     1     4     3
 0.0000000006     2     1     4     4
 0.0723958343     2     1     4     5
 -0.0000000004     2     1     4    10
 -0.0033002325     2     1     5     2
 -0.0000000002     2     1     5     3
 0.0723824095     2     1     5     4
 -0.0000000004     2     1     5     5
 -0.2928156682     2     1     5    10
 0.0000000001     2     1     6     6
 0.0000000005     2     1     6     7
 0.1981482760     2     1     6     8
 -0.2373717933     2     1     6     9
 0.0000000005     2     1     7     6
 -0.0000000014     2     1     7     7
 0.2373717934     2     1     7     8
 0.1981482764     2     1     7     9
 0.1981754742     2     1     8     6
 0.2374043755     2     1     8     7
 0.0000000004     2     1     8     8
 -0.0000000002     2     1     8     9
 -0.2374043754     2     1     9     6
 0.1981754746     2     1     9     7
 -0.0000000002     2     1     9     8
 0.0000000002     2     1     9     9
 -0.0000000045     2     1    10     2
 0.0407743903     2     1    10     3
 -0.0000000004     2     1    10     4
 -0.2929043127     2     1    10     5
 0.0000000002     2     1    10    10
 0.2204599164     2     2     1     1
 -0.0002159177     2     2     1     3
 -0.0000000004     2     2     1     4
 0.0033002325     2     2     1     5
 0.0000000045     2     2     1    10
 -0.0002159177     2     2     3     1
 0.5622516770     2     2     3     3
 0.0000010366     2     2     3     4
 -0.0096238630     2     2     3     5
 0.0000001226     2     2     3    10
 -0.0000000004     2     2     4     1
 0.0000010366     2     2     4     3
 0.5699059031     2     2     4     4
 0.0000002176     2     2     4     5
 0.0336766602     2     2     4    10
 0.0033002325     2     2     5     1
 -0.0096238630     2     2     5     3
 0.0000002176     2     2     5     4
 0.5595710542     2     2     5     5
 -0.0000008810     2     2     5    10
 0.5625644198     2     2     6     6
 -0.0000000003     2     2     6     7
 0.0000005961     2     2     6     8
 -0.0000007140     2     2     6     9
 -0.0000000003     2     2     7     6
 0.5625644205     2     2     7     7
 0.0000007139     2     2     7     8
 0.0000005958     2     2     7     9
 0.0000005961     2     2     8     6
 0.0000007139     2     2     8     7
 0.5428839478     2     2     8     8
 -0.0000007140     2     2     9     6
 0.0000005958     2     2     9     7
 0.5428839478     2     2     9     9
 0.0000000045     2     2    10     1
 0.0000001226     2     2    10     3
 0.0336766602     2     2    10     4
 -0.0000008810     2     2    10     5
 0.5684277917     2     2    10    10
 -0.0000000003     2     3     1     1
 0.0002159177     2     3     1     2
 0.0000116309     2     3     1     4
 -0.0000123896     2     3     1    10
 0.0000000023     2     3     3     1
 -0.5622516770     2     3     3     2
 -0.0002004289     2     3     3     4
 -0.0000000035     2     3     3     5
 0.0024123851     2     3     3    10
 -0.3449243901     2     3     4     1
 -0.0000010366     2     3     4     2
 0.0000000007     2     3     4     4
 0.0033025569     2     3     4     5
 -0.0000000047     2     3     4    10
 0.0000000002     2     3     5     1
 0.0096238630     2     3     5     2
 0.0022412694     2     3     5     4
 0.0000000301     2     3     5     5
 -0.0195310205     2     3     5    10
 0.0000000313     2     3     6     6
 0.0000000001     2     3     6     7
 0.0122734054     2     3     6     8
 -0.0147029302     2     3     6     9
 0.0000000001     2     3     7     6
 0.0000000312     2     3     7     7
 0.0147029302     2     3     7     8
 0.0122734054     2     3     7     9
 0.0111712237     2     3     8     6
 0.0133825712     2     3     8     7
 0.0000000266     2     3     8     8
 -0.0133825712     2     3     9     6
 0.0111712237     2     3     9     7
 0.0000000266     2     3     9     9
 -0.0407743903     2     3    10     1
 -0.0000001226     2     3    10     2
 -0.0000000028     2     3    10     4
 -0.0165262762     2     3    10     5
 0.0000000276     2     3    10    10
 0.0002811595     2     4     1     1
 0.0000000004     2     4     1     2
 -0.0000116309     2     4     1     3
 0.0000127575     2     4     1     5
 -0.3449361983     2     4     3     1
 -0.0000010366     2     4     3     2
 0.0002004289     2     4     3     3
 0.0010414418     2     4     3     5
 -0.0000000017     2     4     3    10
 -0.0000000006     2     4     4     1
 -0.5699059031     2     4     4     2
 -0.0000000007     2     4     4     3
 0.0000000008     2     4     4     5
 -0.0004953757     2     4     4    10
 -0.0723824095     2     4     5     1
 -0.0000002176     2     4     5     2
 -0.0022412694     2     4     5     3
 0.0196636733     2     4     5     5
 -0.0000000284     2     4     5    10
 0.0210584065     2     4     6     6
 0.0000000182     2     4     6     8
 -0.0000000218     2     4     6     9
 0.0210584065     2     4     7     7
 0.0000000218     2     4     7     8
 0.0000000183     2     4     7     9
 0.0000000173     2     4     8     6
 0.0000000208     2     4     8     7
 0.0186777665     2     4     8     8
 -0.0000000208     2     4     9     6
 0.0000000174     2     4     9     7
 0.0186777665     2     4     9     9
 0.0000000004     2     4    10     1
 -0.0336766602     2     4    10     2
 0.0000000028     2     4    10     3
 -0.0000000257     2     4    10     5
 0.0202812699     2     4    10    10
 0.0000000050     2     5     1     1
 -0.0033002325     2     5     1     2
 -0.0000127575     2     5     1     4
 0.0000895951     2     5     1    10
 0.0000000002     2     5     3     1
 0.0096238630     2     5     3     2
 0.0000000035     2     5     3     3
 -0.0010414418     2     5     3     4
 -0.0020063264     2     5     3    10
 -0.0723958343     2     5     4     1
 -0.0000002176     2     5     4     2
 -0.0033025569     2     5     4     3
 -0.0000000008     2     5     4     4
 -0.0000000007     2     5     4    10
 0.0000000004     2     5     5     1
 -0.5595710542     2     5     5     2
 -0.0000000301     2     5     5     3
 -0.0196636733     2     5     5     4
 -0.0005099823     2     5     5    10
 0.0000000048     2     5     6     6
 -0.0001005211     2     5     6     8
 0.0001204193     2     5     6     9
 0.0000000047     2     5     7     7
 -0.0001204193     2     5     7     8
 -0.0001005211     2     5     7     9
 -0.0001386386     2     5     8     6
 -0.0001660821     2     5     8     7
 0.0000000038     2     5     8     8
 0.0001660821     2     5     9     6
 -0.0001386385     2     5     9     7
 0.0000000038     2     5     9     9
 0.2929043127     2     5    10     1
 0.0000008810     2     5    10     2
 0.0165262762     2     5    10     3
 0.0000000257     2     5    10     4
 0.0000000099     2     5    10    10
 -0.0000277615     2     6     1     8
 0.0000332568     2     6     1     9
 0.0005502112     2     6     3     8
 -0.0006591257     2     6     3     9
 -0.0001695744     2     6     5     8
 0.0002031416     2     6     5     9
 -0.0000000001     2     6     6     1
 -0.5625644198     2     6     6     2
 -0.0000000313     2     6     6     3
 -0.0210584065     2     6     6     4
 -0.0000000048     2     6     6     5
 -0.0015880073     2     6     6    10
 -0.0000000005     2     6     7     1
 0.0000000003     2     6     7     2
 -0.0000000001     2     6     7     3
 -0.1981754742     2     6     8     1
 -0.0000005961     2     6     8     2
 -0.0111712237     2     6     8     3
 -0.0000000173     2     6     8     4
 0.0001386386     2     6     8     5
 -0.0000000044     2     6     8    10
 0.2374043754     2     6     9     1
 0.0000007140     2     6     9     2
 0.0133825712     2     6     9     3
 0.0000000208     2     6     9     4
 -0.0001660821     2     6     9     5
 0.0000000053     2     6     9    10
 -0.0000000001     2     6    10     8
 0.0000000002     2     6    10     9
 -0.0000332568     2     7     1     8
 -0.0000277615     2     7     1     9
 0.0006591257     2     7     3     8
 0.0005502112     2     7     3     9
 -0.0002031416     2     7     5     8
 -0.0001695744     2     7     5     9
 -0.0000000005     2     7     6     1
 0.0000000003     2     7     6     2
 -0.0000000001     2     7     6     3
 0.0000000014     2     7     7     1
 -0.5625644205     2     7     7     2
 -0.0000000312     2     7     7     3
 -0.0210584065     2     7     7     4
 -0.0000000047     2     7     7     5
 -0.0015880073     2     7     7    10
 -0.2374043755     2     7     8     1
 -0.0000007139     2     7     8     2
 -0.0133825712     2     7     8     3
 -0.0000000208     2     7     8     4
 0.0001660821     2     7     8     5
 -0.0000000053     2     7     8    10
 -0.1981754746     2     7     9     1
 -0.0000005958     2     7     9     2
 -0.0111712237     2     7     9     3
 -0.0000000174     2     7     9     4
 0.0001386385     2     7     9     5
 -0.0000000044     2     7     9    10
 -0.0000000002     2     7    10     8
 -0.0000000001     2     7    10     9
 0.0000277615     2     8     1     6
 0.0000332568     2     8     1     7
 -0.0005502112     2     8     3     6
 -0.0006591257     2     8     3     7
 0.0001695744     2     8     5     6
 0.0002031416     2     8     5     7
 -0.1981482760     2     8     6     1
 -0.0000005961     2     8     6     2
 -0.0122734054     2     8     6     3
 -0.0000000182     2     8     6     4
 0.0001005211     2     8     6     5
 -0.0000000046     2     8     6    10
 -0.2373717934     2     8     7     1
 -0.0000007139     2     8     7     2
 -0.0147029302     2     8     7     3
 -0.0000000218     2     8     7     4
 0.0001204193     2     8     7     5
 -0.0000000055     2     8     7    10
 -0.0000000004     2     8     8     1
 -0.5428839478     2     8     8     2
 -0.0000000266     2     8     8     3
 -0.0186777665     2     8     8     4
 -0.0000000038     2     8     8     5
 -0.0020555683     2     8     8    10
 0.0000000002     2     8     9     1
 0.0000000001     2     8    10     6
 0.0000000002     2     8    10     7
 -0.0000332568     2     9     1     6
 0.0000277615     2     9     1     7
 0.0006591257     2     9     3     6
 -0.0005502112     2     9     3     7
 -0.0002031416     2     9     5     6
 0.0001695744     2     9     5     7
 0.2373717933     2     9     6     1
 0.0000007140     2     9     6     2
 0.0147029302     2     9     6     3
 0.0000000218     2     9     6     4
 -0.0001204193     2     9     6     5
 0.0000000055     2     9     6    10
 -0.1981482764     2     9     7     1
 -0.0000005958     2     9     7     2
 -0.0122734054     2     9     7     3
 -0.0000000183     2     9     7     4
 0.0001005211     2     9     7     5
 -0.0000000046     2     9     7    10
 0.0000000002     2     9     8     1
 -0.0000000002     2     9     9     1
 -0.5428839478     2     9     9     2
 -0.0000000266     2     9     9     3
 -0.0186777665     2     9     9     4
 -0.0000000038     2     9     9     5
 -0.0020555683     2     9     9    10
 -0.0000000002     2     9    10     6
 0.0000000001     2     9    10     7
 -0.0030072618     2    10     1     1
 -0.0000000045     2    10     1     2
 0.0000123896     2    10     1     3
 -0.0000895951     2    10     1     5
 -0.0407615838     2    10     3     1
 -0.0000001226     2    10     3     2
 -0.0024123851     2    10     3     3
 0.0000000017     2    10     3     4
 0.0020063264     2    10     3     5
 0.0000000004     2    10     4     1
 -0.0336766602     2    10     4     2
 0.0000000047     2    10     4     3
 0.0004953757     2    10     4     4
 0.0000000007     2    10     4     5
 0.2928156682     2    10     5     1
 0.0000008810     2    10     5     2
 0.0195310205     2    10     5     3
 0.0000000284     2    10     5     4
 0.0005099823     2    10     5     5
 0.0015880073     2    10     6     6
 0.0000000046     2    10     6     8
 -0.0000000055     2    10     6     9
 0.0015880073     2    10     7     7
 0.0000000055     2    10     7     8
 0.0000000046     2    10     7     9
 0.0000000044     2    10     8     6
 0.0000000053     2    10     8     7
 0.0020555683     2    10     8     8
 -0.0000000053     2    10     9     6
 0.0000000044     2    10     9     7
 0.0020555683     2    10     9     9
 -0.0000000002     2    10    10     1
 -0.5684277917     2    10    10     2
 -0.0000000276     2    10    10     3
 -0.0202812699     2    10    10     4
 -0.0000000099     2    10    10     5
 0.0000000003     3     1     1     2
 -0.5622646342     3     1     1     3
 0.0000010385     3     1     1     4
 0.0096277340     3     1     1     5
 0.0000001226     3     1     1    10
 -0.0002159177     3     1     2     2
 0.0000000023     3     1     2     3
 -0.3449361983     3     1     2     4
 0.0000000002     3     1     2     5
 -0.0407615838     3     1     2    10
 -0.0000116309     3     1     4     2
 0.0000000004     3     1     4     3
 0.0004624630     3     1     4     4
 -0.0000000034     3     1     4     5
 -0.0018760104     3     1     4    10
 -0.0023875567     3     1     5     3
 -0.0000000049     3     1     5     4
 0.0201305627     3     1     5     5
 0.0000000252     3     1     5    10
 0.0208128643     3     1     6     6
 -0.0000000168     3     1     6     8
 0.0000000202     3     1     6     9
 0.0208128643     3     1     7     7
 -0.0000000201     3     1     7     8
 -0.0000000168     3     1     7     9
 -0.0000000185     3     1     8     6
 -0.0000000222     3     1     8     7
 0.0176859384     3     1     8     8
 0.0000000222     3     1     9     6
 -0.0000000185     3     1     9     7
 0.0176859384     3     1     9     9
 0.0000123896     3     1    10     2
 -0.0000000037     3     1    10     3
 -0.0031123231     3     1    10     4
 0.0000000295     3     1    10     5
 0.0185582027     3     1    10    10
 -0.0000000003     3     2     1     1
 0.0000000023     3     2     1     3
 -0.3449243901     3     2     1     4
 0.0000000002     3     2     1     5
 -0.0407743903     3     2     1    10
 0.0002159177     3     2     2     1
 -0.5622516770     3     2     2     3
 -0.0000010366     3     2     2     4
 0.0096238630     3     2     2     5
 -0.0000001226     3     2     2    10
 0.0000116309     3     2     4     1
 -0.0002004289     3     2     4     3
 0.0000000007     3     2     4     4
 0.0022412694     3     2     4     5
 -0.0000000028     3     2     4    10
 -0.0000000035     3     2     5     3
 0.0033025569     3     2     5     4
 0.0000000301     3     2     5     5
 -0.0165262762     3     2     5    10
 0.0000000313     3     2     6     6
 0.0000000001     3     2     6     7
 0.0111712237     3     2     6     8
 -0.0133825712     3     2     6     9
 0.0000000001     3     2     7     6
 0.0000000312     3     2     7     7
 0.0133825712     3     2     7     8
 0.0111712237     3     2     7     9
 0.0122734054     3     2     8     6
 0.0147029302     3     2     8     7
 0.0000000266     3     2     8     8
 -0.0147029302     3     2     9     6
 0.0122734054     3     2     9     7
 0.0000000266     3     2     9     9
 -0.0000123896     3     2    10     1
 0.0024123851     3     2    10     3
 -0.0000000047     3     2    10     4
 -0.0195310205     3     2    10     5
 0.0000000276     3     2    10    10
 0.5622646342     3     3     1     1
 -0.0000000023     3     3     1     2
 -0.0000000004     3     3     1     4
 0.0023875567     3     3     1     5
 0.0000000037     3     3     1    10
 -0.0000000023     3     3     2     1
 0.5622516770     3     3     2     2
 0.0002004289     3     3     2     4
 0.0000000035     3     3     2     5
 -0.0024123851     3     3     2    10
 -0.0000000004     3     3     4     1
 0.0002004289     3     3     4     2
 0.2174537789     3     3     4     4
 0.0126093492     3     3     4    10
 0.0023875567     3     3     5     1
 0.0000000035     3     3     5     2
 0.3670233252     3     3     5     5
 -0.0000000002     3     3     5    10
 0.3684635452     3     3     6     6