&FCI NORB= 10,NELEC= 14,MS2=0,
 ORBSYM=1,1,1,1,1,1,1,1,1,1
 ISYM=1,
&END
 0.1603066307     1     1     2     2
 0.0000388613     1     1     2     4
 -0.0015206851     1     1     2    10
 0.5340631745     1     1     3     3
 -0.0000000116     1     1     3     4
 0.0065508751     1     1     3     5
 -0.0000000005     1     1     3    10
 0.0000388613     1     1     4     2
 -0.0000000116     1     1     4     3
 0.5371778632     1     1     4     4
 0.0000000014     1     1     4     5
 0.0156804129     1     1     4    10
 0.0065508751     1     1     5     3
 0.0000000014     1     1     5     4
 0.5359789321     1     1     5     5
 -0.0000000115     1     1     5    10
 0.5396039823     1     1     6     6
 0.0000000004     1     1     6     7
 -0.0000000028     1     1     6     8
 -0.0000000097     1     1     6     9
 0.0000000004     1     1     7     6
 0.5396039817     1     1     7     7
 -0.0000000096     1     1     7     8
 0.0000000027     1     1     7     9
 -0.0000000028     1     1     8     6
 -0.0000000096     1     1     8     7
 0.5110795698     1     1     8     8
 -0.0000000097     1     1     9     6
 0.0000000027     1     1     9     7
 0.5110795698     1     1     9     9
 -0.0015206851     1     1    10     2
 -0.0000000005     1     1    10     3
 0.0156804129     1     1    10     4
 -0.0000000115     1     1    10     5
 0.5233580582     1     1    10    10
 -0.1603066307     1     2     2     1
 0.0000709410     1     2     2     3
 0.0018042007     1     2     2     5
 -0.0000000003     1     2     3     3
 0.3760390101     1     2     3     4
 0.0000000001     1     2     3     5
 0.0130010058     1     2     3    10
 -0.0000388613     1     2     4     1
 0.3760519905     1     2     4     3
 -0.0277439872     1     2     4     5
 -0.0000000001     1     2     4    10
 0.0000000001     1     2     5     3
 -0.0277476382     1     2     5     4
 -0.0000000044     1     2     5     5
 0.3375244570     1     2     5    10
 0.0000000025     1     2     6     6
 0.0000000001     1     2     6     7
 0.0929629653     1     2     6     8
 0.3269867007     1     2     6     9
 0.0000000001     1     2     7     6
 0.0000000013     1     2     7     7
 0.3269867004     1     2     7     8
 -0.0929629646     1     2     7     9
 0.0929586831     1     2     8     6
 0.3269716381     1     2     8     7
 0.0000000007     1     2     8     8
 -0.0000000005     1     2     8     9
 0.3269716383     1     2     9     6
 -0.0929586823     1     2     9     7
 -0.0000000005     1     2     9     8
 -0.0000000003     1     2     9     9
 0.0015206851     1     2    10     1
 0.0129955708     1     2    10     3
 -0.0000000001     1     2    10     4
 0.3374907820     1     2    10     5
 -0.0000709410     1     3     2     2
 -0.0000128706     1     3     2     4
 0.0000053033     1     3     2    10
 -0.5340631745     1     3     3     1
 0.0000000003     1     3     3     2
 0.0000000001     1     3     3     4
 0.0008996766     1     3     3     5
 0.0000000116     1     3     4     1
 -0.3760519905     1     3     4     2
 0.0002301994     1     3     4     4
 -0.0014425134     1     3     4    10
 -0.0065508751     1     3     5     1
 -0.0000000001     1     3     5     2
 0.0210512817     1     3     5     5
 -0.0000000004     1     3     5    10
 0.0214884042     1     3     6     6
 -0.0000000001     1     3     6     8
 -0.0000000003     1     3     6     9
 0.0214884041     1     3     7     7
 -0.0000000003     1     3     7     8
 -0.0000000001     1     3     8     6
 -0.0000000003     1     3     8     7
 0.0175237110     1     3     8     8
 -0.0000000003     1     3     9     6
 0.0000000001     1     3     9     7
 0.0175237109     1     3     9     9
 0.0000000005     1     3    10     1
 -0.0129955708     1     3    10     2
 -0.0007069492     1     3    10     4
 -0.0000000004     1     3    10     5
 0.0180557769     1     3    10    10
 -0.0000388613     1     4     2     1
 0.0000128706     1     4     2     3
 0.0000035057     1     4     2     5
 0.0000000116     1     4     3     1
 -0.3760390101     1     4     3     2
 -0.0000000001     1     4     3     3
 -0.0007251652     1     4     3    10
 -0.5371778632     1     4     4     1
 -0.0002301994     1     4     4     3
 0.0001078220     1     4     4     5
 -0.0000000014     1     4     5     1
 0.0277476382     1     4     5     2
 -0.0000000007     1     4     5     5
 0.0193347195     1     4     5    10
 -0.0000000001     1     4     6     6
 0.0052786142     1     4     6     8
 0.0185669273     1     4     6     9
 -0.0000000002     1     4     7     7
 0.0185669273     1     4     7     8
 -0.0052786141     1     4     7     9
 0.0050073402     1     4     8     6
 0.0176127517     1     4     8     7
 -0.0000000003     1     4     8     8
 0.0176127517     1     4     9     6
 -0.0050073400     1     4     9     7
 -0.0000000003     1     4     9     9
 -0.0156804129     1     4    10     1
 0.0000000001     1     4    10     2
 0.0007069492     1     4    10     3
 0.0183237535     1     4    10     5
 -0.0000000003     1     4    10    10
 -0.0018042007     1     5     2     2
 -0.0000035057     1     5     2     4
 0.0000340977     1     5     2    10
 -0.0065508751     1     5     3     1
 -0.0000000001     1     5     3     2
 -0.0008996766     1     5     3     3
 -0.0000000014     1     5     4     1
 0.0277439872     1     5     4     2
 -0.0001078220     1     5     4     4
 0.0001576064     1     5     4    10
 -0.5359789321     1     5     5     1
 0.0000000044     1     5     5     2
 -0.0210512817     1     5     5     3
 0.0000000007     1     5     5     4
 -0.0011676781     1     5     6     6
 -0.0011676781     1     5     7     7
 -0.0009431147     1     5     8     8
 -0.0009431147     1     5     9     9
 0.0000000115     1     5    10     1
 -0.3374907820     1     5    10     2
 0.0000000004     1     5    10     3
 -0.0183237535     1     5    10     4
 -0.0029008606     1     5    10    10
 0.0000045815     1     6     2     8
 0.0000161151     1     6     2     9
 0.0000465440     1     6     4     8
 0.0001637133     1     6     4     9
 -0.5396039823     1     6     6     1
 -0.0000000025     1     6     6     2
 -0.0214884042     1     6     6     3
 0.0000000001     1     6     6     4
 0.0011676781     1     6     6     5
 -0.0000000004     1     6     7     1
 -0.0000000001     1     6     7     2
 0.0000000028     1     6     8     1
 -0.0929586831     1     6     8     2
 0.0000000001     1     6     8     3
 -0.0050073402     1     6     8     4
 -0.0005398929     1     6     8    10
 0.0000000097     1     6     9     1
 -0.3269716383     1     6     9     2
 0.0000000003     1     6     9     3
 -0.0176127517     1     6     9     4
 -0.0018990120     1     6     9    10
 -0.0000168121     1     6    10     8
 -0.0000591346     1     6    10     9
 0.0000161151     1     7     2     8
 -0.0000045816     1     7     2     9
 0.0001637133     1     7     4     8
 -0.0000465440     1     7     4     9
 -0.0000000004     1     7     6     1
 -0.0000000001     1     7     6     2
 -0.5396039817     1     7     7     1
 -0.0000000013     1     7     7     2
 -0.0214884041     1     7     7     3
 0.0000000002     1     7     7     4
 0.0011676781     1     7     7     5
 0.0000000096     1     7     8     1
 -0.3269716381     1     7     8     2
 0.0000000003     1     7     8     3
 -0.0176127517     1     7     8     4
 -0.0018990120     1     7     8    10
 -0.0000000027     1     7     9     1
 0.0929586823     1     7     9     2
 -0.0000000001     1     7     9     3
 0.0050073400     1     7     9     4
 0.0005398929     1     7     9    10
 -0.0000591346     1     7    10     8
 0.0000168121     1     7    10     9
 -0.0000045815     1     8     2     6
 -0.0000161151     1     8     2     7
 -0.0000465440     1     8     4     6
 -0.0001637133     1     8     4     7
 0.0000000028     1     8     6     1
 -0.0929629653     1     8     6     2
 0.0000000001     1     8     6     3
 -0.0052786142     1     8     6     4
 -0.0005555854     1     8     6    10
 0.0000000096     1     8     7     1
 -0.3269867004     1     8     7     2
 0.0000000003     1     8     7     3
 -0.0185669273     1     8     7     4
 -0.0019542089     1     8     7    10
 -0.5110795698     1     8     8     1
 -0.0000000007     1     8     8     2
 -0.0175237110     1     8     8     3
 0.0000000003     1     8     8     4
 0.0009431147     1     8     8     5
 0.0000000001     1     8     8    10
 0.0000000005     1     8     9     2
 0.0000168121     1     8    10     6
 0.0000591346     1     8    10     7
 -0.0000161151     1     9     2     6
 0.0000045816     1     9     2     7
 -0.0001637133     1     9     4     6
 0.0000465440     1     9     4     7
 0.0000000097     1     9     6     1
 -0.3269867007     1     9     6     2
 0.0000000003     1     9     6     3
 -0.0185669273     1     9     6     4
 -0.0019542089     1     9     6    10
 -0.0000000027     1     9     7     1
 0.0929629646     1     9     7     2
 0.0052786141     1     9     7     4
 0.0005555854     1     9     7    10
 0.0000000005     1     9     8     2
 -0.5110795698     1     9     9     1
 0.0000000003     1     9     9     2
 -0.0175237109     1     9     9     3
 0.0000000003     1     9     9     4
 0.0009431147     1     9     9     5
 0.0000000001     1     9     9    10
 0.0000591346     1     9    10     6
 -0.0000168121     1     9    10     7
 0.0015206851     1    10     2     1
 -0.0000053033     1    10     2     3
 -0.0000340977     1    10     2     5
 0.0000000005     1    10     3     1
 -0.0130010058     1    10     3     2
 0.0007251652     1    10     3     4
 -0.0156804129     1    10     4     1
 0.0000000001     1    10     4     2
 0.0014425134     1    10     4     3
 -0.0001576064     1    10     4     5
 0.0000000115     1    10     5     1
 -0.3375244570     1    10     5     2
 0.0000000004     1    10     5     3
 -0.0193347195     1    10     5     4
 0.0005555854     1    10     6     8
 0.0019542089     1    10     6     9
 0.0019542089     1    10     7     8
 -0.0005555854     1    10     7     9
 0.0005398929     1    10     8     6
 0.0018990120     1    10     8     7
 -0.0000000001     1    10     8     8
 0.0018990120     1    10     9     6
 -0.0005398929     1    10     9     7
 -0.0000000001     1    10     9     9
 -0.5233580582     1    10    10     1
 -0.0180557769     1    10    10     3
 0.0000000003     1    10    10     4
 0.0029008606     1    10    10     5
 -0.1603066307     2     1     1     2
 -0.0000388613     2     1     1     4
 0.0015206851     2     1     1    10
 0.0000709410     2     1     3     2
 -0.0000000003     2     1     3     3
 0.3760519905     2     1     3     4
 0.0000000001     2     1     3     5
 0.0129955708     2     1     3    10
 0.3760390101     2     1     4     3
 -0.0277476382     2     1     4     5
 -0.0000000001     2     1     4    10
 0.0018042007     2     1     5     2
 0.0000000001     2     1     5     3
 -0.0277439872     2     1     5     4
 -0.0000000044     2     1     5     5
 0.3374907820     2     1     5    10
 0.0000000025     2     1     6     6
 0.0000000001     2     1     6     7
 0.0929586831     2     1     6     8
 0.3269716383     2     1     6     9
 0.0000000001     2     1     7     6
 0.0000000013     2     1     7     7
 0.3269716381     2     1     7     8
 -0.0929586823     2     1     7     9
 0.0929629653     2     1     8     6
 0.3269867004     2     1     8     7
 0.0000000007     2     1     8     8
 -0.0000000005     2     1     8     9
 0.3269867007     2     1     9     6
 -0.0929629646     2     1     9     7
 -0.0000000005     2     1     9     8
 -0.0000000003     2     1     9     9
 0.0130010058     2     1    10     3
 -0.0000000001     2     1    10     4
 0.3375244570     2     1    10     5
 0.1603066307     2     2     1     1
 -0.0000709410     2     2     1     3
 -0.0018042007     2     2     1     5
 -0.0000709410     2     2     3     1
 0.5340499455     2     2     3     3
 0.0000000114     2     2     3     4
 0.0065480931     2     2     3     5
 0.0000000002     2     2     3    10
 0.0000000114     2     2     4     3
 0.5371904897     2     2     4     4
 -0.0000000003     2     2     4     5
 0.0156756093     2     2     4    10
 -0.0018042007     2     2     5     1
 0.0065480931     2     2     5     3
 -0.0000000003     2     2     5     4
 0.5360175845     2     2     5     5
 0.0000000091     2     2     5    10
 0.5396240498     2     2     6     6
 0.0000000004     2     2     6     7
 0.0000000030     2     2     6     8
 0.0000000103     2     2     6     9
 0.0000000004     2     2     7     6
 0.5396240493     2     2     7     7
 0.0000000103     2     2     7     8
 -0.0000000029     2     2     7     9
 0.0000000030     2     2     8     6
 0.0000000103     2     2     8     7
 0.5110658929     2     2     8     8
 0.0000000103     2     2     9     6
 -0.0000000029     2     2     9     7
 0.5110658929     2     2     9     9
 0.0000000002     2     2    10     3
 0.0156756093     2     2    10     4
 0.0000000091     2     2    10     5
 0.5233266363     2     2    10    10
 0.0000709410     2     3     1     2
 0.0000128706     2     3     1     4
 -0.0000053033     2     3     1    10
 0.0000000003     2     3     3     1
 -0.5340499455     2     3     3     2
 -0.0001412952     2     3     3     4
 0.0009188185     2     3     3    10
 -0.3760390101     2     3     4     1
 -0.0000000114     2     3     4     2
 -0.0016012170     2     3     4     5
 -0.0000000001     2     3     5     1
 -0.0065480931     2     3     5     2
 -0.0006731267     2     3     5     4
 -0.0000000001     2     3     5     5
 0.0196330437     2     3     5    10
 0.0000000005     2     3     6     6
 0.0053057161     2     3     6     8
 0.0186622553     2     3     6     9
 0.0000000005     2     3     7     7
 0.0186622552     2     3     7     8
 -0.0053057160     2     3     7     9
 0.0049517298     2     3     8     6
 0.0174171487     2     3     8     7
 0.0000000003     2     3     8     8
 0.0174171487     2     3     9     6
 -0.0049517297     2     3     9     7
 0.0000000003     2     3     9     9
 -0.0130010058     2     3    10     1
 -0.0000000002     2     3    10     2
 0.0179454384     2     3    10     5
 0.0000000003     2     3    10    10
 0.0000388613     2     4     1     1
 -0.0000128706     2     4     1     3
 -0.0000035057     2     4     1     5
 -0.3760519905     2     4     3     1
 -0.0000000114     2     4     3     2
 0.0001412952     2     4     3     3
 -0.0009279727     2     4     3     5
 -0.5371904897     2     4     4     2
 0.0000546481     2     4     4    10
 0.0277439872     2     4     5     1
 0.0000000003     2     4     5     2
 0.0006731267     2     4     5     3
 0.0208040069     2     4     5     5
 0.0000000002     2     4     5    10
 0.0214949432     2     4     6     6
 0.0000000001     2     4     6     8
 0.0000000003     2     4     6     9
 0.0214949432     2     4     7     7
 0.0000000003     2     4     7     8
 -0.0000000001     2     4     7     9
 0.0000000001     2     4     8     6
 0.0000000003     2     4     8     7
 0.0178332241     2     4     8     8
 0.0000000003     2     4     9     6
 -0.0000000001     2     4     9     7
 0.0178332241     2     4     9     9
 0.0000000001     2     4    10     1
 -0.0156756093     2     4    10     2
 0.0000000002     2     4    10     5
 0.0185846619     2     4    10    10
 0.0018042007     2     5     1     2
 0.0000035057     2     5     1     4
 -0.0000340977     2     5     1    10
 -0.0000000001     2     5     3     1
 -0.0065480931     2     5     3     2
 0.0009279727     2     5     3     4
 0.0009084956     2     5     3    10
 0.0277476382     2     5     4     1
 0.0000000003     2     5     4     2
 0.0016012170     2     5     4     3
 0.0000000001     2     5     4    10
 0.0000000044     2     5     5     1
 -0.5360175845     2     5     5     2
 0.0000000001     2     5     5     3
 -0.0208040069     2     5     5     4
 0.0003020043     2     5     5    10
 0.0001334236     2     5     6     8
 0.0004693024     2     5     6     9
 0.0004693024     2     5     7     8
 -0.0001334236     2     5     7     9
 0.0002203501     2     5     8     6
 0.0007750565     2     5     8     7
 0.0007750565     2     5     9     6
 -0.0002203501     2     5     9     7
 -0.3375244570     2     5    10     1
 -0.0000000091     2     5    10     2
 -0.0179454384     2     5    10     3
 -0.0000000002     2     5    10     4
 -0.0000045815     2     6     1     8
 -0.0000161151     2     6     1     9
 0.0001399959     2     6     3     8
 0.0004924196     2     6     3     9
 -0.0000056308     2     6     5     8
 -0.0000198058     2     6     5     9
 -0.0000000025     2     6     6     1
 -0.5396240498     2     6     6     2
 -0.0000000005     2     6     6     3
 -0.0214949432     2     6     6     4
 -0.0004416726     2     6     6    10
 -0.0000000001     2     6     7     1
 -0.0000000004     2     6     7     2
 -0.0929629653     2     6     8     1
 -0.0000000030     2     6     8     2
 -0.0049517298     2     6     8     3
 -0.0000000001     2     6     8     4
 -0.0002203501     2     6     8     5
 -0.3269867007     2     6     9     1
 -0.0000000103     2     6     9     2
 -0.0174171487     2     6     9     3
 -0.0000000003     2     6     9     4
 -0.0007750565     2     6     9     5
 0.0000000001     2     6    10     9
 -0.0000161151     2     7     1     8
 0.0000045816     2     7     1     9
 0.0004924196     2     7     3     8
 -0.0001399959     2     7     3     9
 -0.0000198058     2     7     5     8
 0.0000056308     2     7     5     9
 -0.0000000001     2     7     6     1
 -0.0000000004     2     7     6     2
 -0.0000000013     2     7     7     1
 -0.5396240493     2     7     7     2
 -0.0000000005     2     7     7     3
 -0.0214949432     2     7     7     4
 -0.0004416726     2     7     7    10
 -0.3269867004     2     7     8     1
 -0.0000000103     2     7     8     2
 -0.0174171487     2     7     8     3
 -0.0000000003     2     7     8     4
 -0.0007750565     2     7     8     5
 0.0929629646     2     7     9     1
 0.0000000029     2     7     9     2
 0.0049517297     2     7     9     3
 0.0000000001     2     7     9     4
 0.0002203501     2     7     9     5
 0.0000000001     2     7    10     8
 0.0000045815     2     8     1     6
 0.0000161151     2     8     1     7
 -0.0001399959     2     8     3     6
 -0.0004924196     2     8     3     7
 0.0000056308     2     8     5     6
 0.0000198058     2     8     5     7
 -0.0929586831     2     8     6     1
 -0.0000000030     2     8     6     2
 -0.0053057161     2     8     6     3
 -0.0000000001     2     8     6     4
 -0.0001334236     2     8     6     5
 -0.3269716381     2     8     7     1
 -0.0000000103     2     8     7     2
 -0.0186622552     2     8     7     3
 -0.0000000003     2     8     7     4
 -0.0004693024     2     8     7     5
 -0.0000000007     2     8     8     1
 -0.5110658929     2     8     8     2
 -0.0000000003     2     8     8     3
 -0.0178332241     2     8     8     4
 -0.0004987038     2     8     8    10
 0.0000000005     2     8     9     1
 -0.0000000001     2     8    10     7
 0.0000161151     2     9     1     6
 -0.0000045816     2     9     1     7
 -0.0004924196     2     9     3     6
 0.0001399959     2     9     3     7
 0.0000198058     2     9     5     6
 -0.0000056308     2     9     5     7
 -0.3269716383     2     9     6     1
 -0.0000000103     2     9     6     2
 -0.0186622553     2     9     6     3
 -0.0000000003     2     9     6     4
 -0.0004693024     2     9     6     5
 0.0929586823     2     9     7     1
 0.0000000029     2     9     7     2
 0.0053057160     2     9     7     3
 0.0000000001     2     9     7     4
 0.0001334236     2     9     7     5
 0.0000000005     2     9     8     1
 0.0000000003     2     9     9     1
 -0.5110658929     2     9     9     2
 -0.0000000003     2     9     9     3
 -0.0178332241     2     9     9     4
 -0.0004987038     2     9     9    10
 -0.0000000001     2     9    10     6
 -0.0015206851     2    10     1     1
 0.0000053033     2    10     1     3
 0.0000340977     2    10     1     5
 -0.0129955708     2    10     3     1
 -0.0000000002     2    10     3     2
 -0.0009188185     2    10     3     3
 -0.0009084956     2    10     3     5
 0.0000000001     2    10     4     1
 -0.0156756093     2    10     4     2
 -0.0000546481     2    10     4     4
 -0.0000000001     2    10     4     5
 -0.3374907820     2    10     5     1
 -0.0000000091     2    10     5     2
 -0.0196330437     2    10     5     3
 -0.0000000002     2    10     5     4
 -0.0003020043     2    10     5     5
 0.0004416726     2    10     6     6
 0.0004416726     2    10     7     7
 0.0004987038     2    10     8     8
 0.0004987038     2    10     9     9
 -0.5233266363     2    10    10     2
 -0.0000000003     2    10    10     3
 -0.0185846619     2    10    10     4
 -0.5340631745     3     1     1     3
 0.0000000116     3     1     1     4
 -0.0065508751     3     1     1     5
 0.0000000005     3     1     1    10
 -0.0000709410     3     1     2     2
 0.0000000003     3     1     2     3
 -0.3760519905     3     1     2     4
 -0.0000000001     3     1     2     5
 -0.0129955708     3     1     2    10
 -0.0000128706     3     1     4     2
 0.0000000001     3     1     4     3
 0.0002301994     3     1     4     4
 -0.0007069492     3     1     4    10
 0.0008996766     3     1     5     3
 0.0210512817     3     1     5     5
 -0.0000000004     3     1     5    10
 0.0214884042     3     1     6     6
 -0.0000000001     3     1     6     8
 -0.0000000003     3     1     6     9
 0.0214884041     3     1     7     7
 -0.0000000003     3     1     7     8
 0.0000000001     3     1     7     9
 -0.0000000001     3     1     8     6
 -0.0000000003     3     1     8     7
 0.0175237110     3     1     8     8
 -0.0000000003     3     1     9     6
 0.0175237109     3     1     9     9
 0.0000053033     3     1    10     2
 -0.0014425134     3     1    10     4
 -0.0000000004     3     1    10     5
 0.0180557769     3     1    10    10
 0.0000000003     3     2     1     3
 -0.3760390101     3     2     1     4
 -0.0000000001     3     2     1     5
 -0.0130010058     3     2     1    10
 0.0000709410     3     2     2     1
 -0.5340499455     3     2     2     3
 -0.0000000114     3     2     2     4
 -0.0065480931     3     2     2     5
 -0.0000000002     3     2     2    10
 0.0000128706     3     2     4     1
 -0.0001412952     3     2     4     3
 -0.0006731267     3     2     4     5
 -0.0016012170     3     2     5     4
 -0.0000000001     3     2     5     5
 0.0179454384     3     2     5    10
 0.0000000005     3     2     6     6
 0.0049517298     3     2     6     8
 0.0174171487     3     2     6     9
 0.0000000005     3     2     7     7
 0.0174171487     3     2     7     8
 -0.0049517297     3     2     7     9
 0.0053057161     3     2     8     6
 0.0186622552     3     2     8     7
 0.0000000003     3     2     8     8
 0.0186622553     3     2     9     6
 -0.0053057160     3     2     9     7
 0.0000000003     3     2     9     9
 -0.0000053033     3     2    10     1
 0.0009188185     3     2    10     3
 0.0196330437     3     2    10     5
 0.0000000003     3     2    10    10
 0.5340631745     3     3     1     1
 -0.0000000003     3     3     1     2
 -0.0000000001     3     3     1     4
 -0.0008996766     3     3     1     5
 -0.0000000003     3     3     2     1
 0.5340499455     3     3     2     2
 0.0001412952     3     3     2     4
 -0.0009188185     3     3     2    10
 -0.0000000001     3     3     4     1
 0.0001412952     3     3     4     2
 0.1574818333     3     3     4     4
 0.0000000002     3     3     4     5
 0.0099914686     3     3     4    10
 -0.0008996766     3     3     5     1
 0.0000000002     3     3     5     4
 0.3425054875     3     3     5     5
 -0.0000000007     3     3     5    10
 0.3435844677     3     3     6     6
 0.0000000003     3     3     6     7
 0.0000000001     3     3     6     9
 0.0000000003     3     3     7     6
 0.3435844671     3     3     7     7
 0.0000000001     3     3     7     8
 0.0000000001     3     3     8     7
 0.3405063746     3     3     8     8
 -0.0000000002     3     3     8     9
 0.0000000001     3     3     9     6
 -0.0000000002     3     3     9     8
 0.3405063746     3     3     9     9
 -0.0009188185     3     3    10     2
 0.0099914686     3     3    10     4
 -0.0000000007     3     3    10     5
 0.3482665343     3     3    10    10
 -0.0000000116     3     4     1     1
 0.3760390101     3     4     1     2
 0.0000000001     3     4     1     3
 0.0007251652     3     4     1    10
 0.3760519905     3     4     2     1
 0.0000000114     3     4     2     2
 -0.0001412952     3     4     2     3
 0.0009279727     3     4     2     5
 -0.0002301994     3     4     4     1
 -0.1574818333     3     4     4     3
 -0.0271133229     3     4     4     5
 -0.0000000001     3     4     4    10
 0.0016012170     3     4     5     2
 -0.0000000002     3     4     5     3
 -0.0000000018     3     4     5     5
 0.1714845451     3     4     5    10
 0.0000000010     3     4     6     6
 0.0000000001     3     4     6     7
 0.0470191534     3     4     6     8
 0.1653845462     3     4     6     9
 0.0000000001     3     4     7     6
 0.0000000003     3     4     7     7
 0.1653845461     3     4     7     8
 -0.0470191531     3     4     7     9
 0.0464781948     3     4     8     6
 0.1634817856     3     4     8     7
 0.0000000002     3     4     8     8
 -0.0000000002     3     4     8     9
 0.1634817857     3     4     9     6
 -0.0464781945     3     4     9     7
 -0.0000000002     3     4     9     8
 -0.0000000003     3     4     9     9
 0.0014425134     3     4    10     1
 -0.0099914686     3     4    10     3
 0.1666899679     3     4    10     5
 -0.0000000001     3     4    10    10
 0.0065508751     3     5     1     1
 0.0000000001     3     5     1     2
 0.0008996766     3     5     1     3
 0.0000000001     3     5     2     1
 0.0065480931     3     5     2     2
 -0.0009279727     3     5     2     4
 -0.0009084956     3     5     2    10
 0.0006731267     3     5     4     2
 -0.0000000002     3     5     4     3
 0.0271133229     3     5     4     4
 0.0049261096     3     5     4    10
 -0.0210512817     3     5     5     1
 0.0000000001     3     5     5     2
 -0.3425054875     3     5     5     3
 0.0000000018     3     5     5     4
 0.0000000001     3     5     5    10
 0.0082889469     3     5     6     6
 -0.0000000001     3     5     6     7
 0.0000000001     3     5     6     8
 0.0000000002     3     5     6     9
 -0.0000000001     3     5     7     6
 0.0082889469     3     5     7     7
 0.0000000002     3     5     7     8
 -0.0000000001     3     5     7     9
 0.0000000001     3     5     8     6
 0.0000000001     3     5     8     7
 0.0083944505     3     5     8     8
 0.0000000001     3     5     8     9
 0.0000000001     3     5     9     6
 0.0000000001     3     5     9     8
 0.0083944505     3     5     9     9
 0.0000000004     3     5    10     1
 -0.0196330437     3     5    10     2
 0.0000000007     3     5    10     3
 -0.1666899679     3     5    10     4
 0.0081718107     3     5    10    10
 -0.0001399959     3     6     2     8
 -0.0004924196     3     6     2     9
 0.0005546208     3     6     4     8
 0.0019508159     3     6     4     9
 0.0000000002     3     6     5     8
 0.0000000004     3     6     5     9
 -0.0214884042     3     6     6     1
 -0.0000000005     3     6     6     2
 -0.3435844677     3     6     6     3
 -0.0000000010     3     6     6     4
 -0.0082889469     3     6     6     5
 -0.0000000002     3     6     6    10
 -0.0000000003     3     6     7     3
 -0.0000000001     3     6     7     4
 0.0000000001     3     6     7     5
 0.0000000001     3     6     8     1
 -0.0053057161     3     6     8     2
 -0.0464781948     3     6     8     4
 -0.0000000001     3     6     8     5
 -0.0002191287     3     6     8    10
 0.0000000003     3     6     9     1
 -0.0186622553     3     6     9     2
 -0.0000000001     3     6     9     3
 -0.1634817857     3     6     9     4
 -0.0000000001     3     6     9     5
 -0.0007707605     3     6     9    10
 0.0001972469     3     6    10     8
 0.0006937938     3     6    10     9
 -0.0004924196     3     7     2     8
 0.0001399959     3     7     2     9
 0.0019508160     3     7     4     8
 -0.0005546208     3     7     4     9
 0.0000000004     3     7     5     8
 -0.0000000001     3     7     5     9
 -0.0000000003     3     7     6     3
 -0.0000000001     3     7     6     4
 0.0000000001     3     7     6     5
 -0.0214884041     3     7     7     1
 -0.0000000005     3     7     7     2
 -0.3435844671     3     7     7     3
 -0.0000000003     3     7     7     4
 -0.0082889469     3     7     7     5
 -0.0000000001     3     7     7    10
 0.0000000003     3     7     8     1
 -0.0186622552     3     7     8     2
 -0.0000000001     3     7     8     3
 -0.1634817856     3     7     8     4
 -0.0000000001     3     7     8     5
 -0.0007707605     3     7     8    10
 0.0053057160     3     7     9     2
 0.0464781945     3     7     9     4
 0.0002191288     3     7     9    10
 0.0006937938     3     7    10     8
 -0.0001972470     3     7    10     9
 0.0001399959     3     8     2     6
 0.0004924196     3     8     2     7
 -0.0005546208     3     8     4     6
 -0.0019508160     3     8     4     7
 -0.0000000002     3     8     5     6
 -0.0000000004     3     8     5     7