&FCI NORB= 10,NELEC= 14,MS2=0,
 ORBSYM=1,1,1,1,1,1,1,1,1,1
 ISYM=1,
&END
 0.1511415928     1     1     2     2
 0.0000000001     1     1     2     3
 -0.0000212516     1     1     2     4
 0.0000000006     1     1     2     5
 0.0013473597     1     1     2    10
 0.0000000001     1     1     3     2
 0.5297795480     1     1     3     3
 -0.0000002830     1     1     3     4
 0.0062879226     1     1     3     5
 -0.0000000076     1     1     3    10
 -0.0000212516     1     1     4     2
 -0.0000002830     1     1     4     3
 0.5321530858     1     1     4     4
 0.0000000168     1     1     4     5
 0.0133998666     1     1     4    10
 0.0000000006     1     1     5     2
 0.0062879226     1     1     5     3
 0.0000000168     1     1     5     4
 0.5326837401     1     1     5     5
 -0.0000002540     1     1     5    10
 0.5353058888     1     1     6     6
 -0.0000001958     1     1     6     8
 -0.0000001648     1     1     6     9
 0.5353058888     1     1     7     7
 -0.0000001647     1     1     7     8
 0.0000001957     1     1     7     9
 -0.0000001958     1     1     8     6
 -0.0000001647     1     1     8     7
 0.5058394202     1     1     8     8
 -0.0000001648     1     1     9     6
 0.0000001957     1     1     9     7
 0.5058394202     1     1     9     9
 0.0013473597     1     1    10     2
 -0.0000000076     1     1    10     3
 0.0133998666     1     1    10     4
 -0.0000002540     1     1    10     5
 0.5160749033     1     1    10    10
 -0.1511415928     1     2     2     1
 -0.0000644941     1     2     2     3
 -0.0016089761     1     2     2     5
 0.0000000005     1     2     2    10
 -0.0000000001     1     2     3     1
 -0.0000000014     1     2     3     3
 0.3805333699     1     2     3     4
 -0.0000000001     1     2     3     5
 0.0103416075     1     2     3    10
 0.0000212516     1     2     4     1
 0.3805464670     1     2     4     3
 0.0000000016     1     2     4     4
 -0.0233512105     1     2     4     5
 -0.0000000001     1     2     4    10
 -0.0000000006     1     2     5     1
 -0.0000000001     1     2     5     3
 -0.0233541760     1     2     5     4
 -0.0000000002     1     2     5     5
 0.3425792608     1     2     5    10
 0.0000000027     1     2     6     6
 0.0000000004     1     2     6     7
 0.2629766519     1     2     6     8
 0.2213377833     1     2     6     9
 0.0000000004     1     2     7     6
 -0.0000000004     1     2     7     7
 0.2213377834     1     2     7     8
 -0.2629766519     1     2     7     9
 0.2629666327     1     2     8     6
 0.2213293506     1     2     8     7
 -0.0000000034     1     2     8     8
 -0.0000000015     1     2     8     9
 0.2213293506     1     2     9     6
 -0.2629666327     1     2     9     7
 -0.0000000015     1     2     9     8
 -0.0000000019     1     2     9     9
 -0.0013473597     1     2    10     1
 0.0103370349     1     2    10     3
 -0.0000000001     1     2    10     4
 0.3425511168     1     2    10     5
 0.0000000045     1     2    10    10
 -0.0000000001     1     3     2     1
 0.0000644941     1     3     2     2
 -0.0000129690     1     3     2     4
 0.0000044702     1     3     2    10
 -0.5297795480     1     3     3     1
 0.0000000014     1     3     3     2
 -0.0000000001     1     3     3     4
 -0.0007869704     1     3     3     5
 0.0000000003     1     3     3    10
 0.0000002830     1     3     4     1
 -0.3805464670     1     3     4     2
 -0.0002127517     1     3     4     4
 -0.0000000005     1     3     4     5
 0.0012483691     1     3     4    10
 -0.0062879226     1     3     5     1
 0.0000000001     1     3     5     2
 -0.0000000002     1     3     5     4
 -0.0211793133     1     3     5     5
 0.0000000072     1     3     5    10
 -0.0215084920     1     3     6     6
 0.0000000056     1     3     6     8
 0.0000000047     1     3     6     9
 -0.0215084920     1     3     7     7
 0.0000000046     1     3     7     8
 -0.0000000056     1     3     7     9
 0.0000000052     1     3     8     6
 0.0000000044     1     3     8     7
 -0.0174716918     1     3     8     8
 0.0000000044     1     3     9     6
 -0.0000000052     1     3     9     7
 -0.0174716918     1     3     9     9
 0.0000000076     1     3    10     1
 -0.0103370349     1     3    10     2
 0.0006024400     1     3    10     4
 0.0000000066     1     3    10     5
 -0.0179033793     1     3    10    10
 0.0000212516     1     4     2     1
 0.0000129690     1     4     2     3
 0.0000028536     1     4     2     5
 0.0000002830     1     4     3     1
 -0.3805333699     1     4     3     2
 0.0000000001     1     4     3     3
 -0.0000000003     1     4     3     5
 0.0006388219     1     4     3    10
 -0.5321530858     1     4     4     1
 -0.0000000016     1     4     4     2
 0.0002127517     1     4     4     3
 -0.0001428195     1     4     4     5
 -0.0000000168     1     4     5     1
 0.0233541760     1     4     5     2
 0.0000000002     1     4     5     3
 0.0000000076     1     4     5     5
 -0.0193399798     1     4     5    10
 0.0000000079     1     4     6     6
 -0.0147591425     1     4     6     8
 -0.0124222277     1     4     6     9
 0.0000000081     1     4     7     7
 -0.0124222277     1     4     7     8
 0.0147591425     1     4     7     9
 -0.0139967456     1     4     8     6
 -0.0117805463     1     4     8     7
 0.0000000067     1     4     8     8
 0.0000000001     1     4     8     9
 -0.0117805463     1     4     9     6
 0.0139967456     1     4     9     7
 0.0000000001     1     4     9     8
 0.0000000067     1     4     9     9
 -0.0133998666     1     4    10     1
 0.0000000001     1     4    10     2
 -0.0006024400     1     4    10     3
 -0.0183610318     1     4    10     5
 0.0000000066     1     4    10    10
 -0.0000000006     1     5     2     1
 0.0016089761     1     5     2     2
 -0.0000028536     1     5     2     4
 0.0000285801     1     5     2    10
 -0.0062879226     1     5     3     1
 0.0000000001     1     5     3     2
 0.0007869704     1     5     3     3
 0.0000000003     1     5     3     4
 0.0000000003     1     5     3    10
 -0.0000000168     1     5     4     1
 0.0233512105     1     5     4     2
 0.0000000005     1     5     4     3
 0.0001428195     1     5     4     4
 -0.0001558848     1     5     4    10
 -0.5326837401     1     5     5     1
 0.0000000002     1     5     5     2
 0.0211793133     1     5     5     3
 -0.0000000076     1     5     5     4
 0.0000000001     1     5     5    10
 0.0009887975     1     5     6     6
 0.0000000001     1     5     6     8
 0.0000000002     1     5     6     9
 0.0009887975     1     5     7     7
 0.0000000002     1     5     7     8
 -0.0000000001     1     5     7     9
 0.0000000002     1     5     8     6
 0.0000000002     1     5     8     7
 0.0008082214     1     5     8     8
 0.0000000002     1     5     9     6
 -0.0000000002     1     5     9     7
 0.0008082214     1     5     9     9
 0.0000002540     1     5    10     1
 -0.3425511168     1     5    10     2
 -0.0000000066     1     5    10     3
 0.0183610318     1     5    10     4
 0.0024758178     1     5    10    10
 0.0000107793     1     6     2     8
 0.0000090726     1     6     2     9
 0.0000000001     1     6     3     8
 0.0000000001     1     6     3     9
 -0.0001450519     1     6     4     8
 -0.0001220849     1     6     4     9
 -0.5353058888     1     6     6     1
 -0.0000000027     1     6     6     2
 0.0215084920     1     6     6     3
 -0.0000000079     1     6     6     4
 -0.0009887975     1     6     6     5
 -0.0000000004     1     6     7     2
 0.0000001958     1     6     8     1
 -0.2629666327     1     6     8     2
 -0.0000000052     1     6     8     3
 0.0139967456     1     6     8     4
 -0.0000000002     1     6     8     5
 0.0012756670     1     6     8    10
 0.0000001648     1     6     9     1
 -0.2213293506     1     6     9     2
 -0.0000000044     1     6     9     3
 0.0117805463     1     6     9     4
 -0.0000000002     1     6     9     5
 0.0010736820     1     6     9    10
 0.0000393341     1     6    10     8
 0.0000331061     1     6    10     9
 0.0000090726     1     7     2     8
 -0.0000107793     1     7     2     9
 0.0000000001     1     7     3     8
 -0.0000000002     1     7     3     9
 -0.0001220849     1     7     4     8
 0.0001450519     1     7     4     9
 -0.0000000004     1     7     6     2
 -0.5353058888     1     7     7     1
 0.0000000004     1     7     7     2
 0.0215084920     1     7     7     3
 -0.0000000081     1     7     7     4
 -0.0009887975     1     7     7     5
 -0.0000000002     1     7     7    10
 0.0000001647     1     7     8     1
 -0.2213293506     1     7     8     2
 -0.0000000044     1     7     8     3
 0.0117805463     1     7     8     4
 -0.0000000002     1     7     8     5
 0.0010736820     1     7     8    10
 -0.0000001957     1     7     9     1
 0.2629666327     1     7     9     2
 0.0000000052     1     7     9     3
 -0.0139967456     1     7     9     4
 0.0000000002     1     7     9     5
 -0.0012756670     1     7     9    10
 0.0000331061     1     7    10     8
 -0.0000393341     1     7    10     9
 -0.0000107793     1     8     2     6
 -0.0000090726     1     8     2     7
 -0.0000000001     1     8     3     6
 -0.0000000001     1     8     3     7
 0.0001450519     1     8     4     6
 0.0001220849     1     8     4     7
 0.0000001958     1     8     6     1
 -0.2629766519     1     8     6     2
 -0.0000000056     1     8     6     3
 0.0147591425     1     8     6     4
 -0.0000000001     1     8     6     5
 0.0013072848     1     8     6    10
 0.0000001647     1     8     7     1
 -0.2213377834     1     8     7     2
 -0.0000000046     1     8     7     3
 0.0124222277     1     8     7     4
 -0.0000000002     1     8     7     5
 0.0011002935     1     8     7    10
 -0.5058394202     1     8     8     1
 0.0000000034     1     8     8     2
 0.0174716918     1     8     8     3
 -0.0000000067     1     8     8     4
 -0.0008082214     1     8     8     5
 -0.0000000001     1     8     8    10
 0.0000000015     1     8     9     2
 -0.0000000001     1     8     9     4
 -0.0000393341     1     8    10     6
 -0.0000331061     1     8    10     7
 -0.0000090726     1     9     2     6
 0.0000107793     1     9     2     7
 -0.0000000001     1     9     3     6
 0.0000000002     1     9     3     7
 0.0001220849     1     9     4     6
 -0.0001450519     1     9     4     7
 0.0000001648     1     9     6     1
 -0.2213377833     1     9     6     2
 -0.0000000047     1     9     6     3
 0.0124222277     1     9     6     4
 -0.0000000002     1     9     6     5
 0.0011002935     1     9     6    10
 -0.0000001957     1     9     7     1
 0.2629766519     1     9     7     2
 0.0000000056     1     9     7     3
 -0.0147591425     1     9     7     4
 0.0000000001     1     9     7     5
 -0.0013072848     1     9     7    10
 0.0000000015     1     9     8     2
 -0.0000000001     1     9     8     4
 -0.5058394202     1     9     9     1
 0.0000000019     1     9     9     2
 0.0174716918     1     9     9     3
 -0.0000000067     1     9     9     4
 -0.0008082214     1     9     9     5
 -0.0000000001     1     9     9    10
 -0.0000331061     1     9    10     6
 0.0000393341     1     9    10     7
 -0.0013473597     1    10     2     1
 -0.0000000005     1    10     2     2
 -0.0000044702     1    10     2     3
 -0.0000285801     1    10     2     5
 0.0000000076     1    10     3     1
 -0.0103416075     1    10     3     2
 -0.0000000003     1    10     3     3
 -0.0006388219     1    10     3     4
 -0.0000000003     1    10     3     5
 -0.0133998666     1    10     4     1
 0.0000000001     1    10     4     2
 -0.0012483691     1    10     4     3
 0.0001558848     1    10     4     5
 0.0000002540     1    10     5     1
 -0.3425792608     1    10     5     2
 -0.0000000072     1    10     5     3
 0.0193399798     1    10     5     4
 -0.0000000001     1    10     5     5
 -0.0013072848     1    10     6     8
 -0.0011002935     1    10     6     9
 0.0000000002     1    10     7     7
 -0.0011002935     1    10     7     8
 0.0013072848     1    10     7     9
 -0.0012756670     1    10     8     6
 -0.0010736820     1    10     8     7
 0.0000000001     1    10     8     8
 -0.0010736820     1    10     9     6
 0.0012756670     1    10     9     7
 0.0000000001     1    10     9     9
 -0.5160749033     1    10    10     1
 -0.0000000045     1    10    10     2
 0.0179033793     1    10    10     3
 -0.0000000066     1    10    10     4
 -0.0024758178     1    10    10     5
 -0.1511415928     2     1     1     2
 -0.0000000001     2     1     1     3
 0.0000212516     2     1     1     4
 -0.0000000006     2     1     1     5
 -0.0013473597     2     1     1    10
 -0.0000644941     2     1     3     2
 -0.0000000014     2     1     3     3
 0.3805464670     2     1     3     4
 -0.0000000001     2     1     3     5
 0.0103370349     2     1     3    10
 0.3805333699     2     1     4     3
 0.0000000016     2     1     4     4
 -0.0233541760     2     1     4     5
 -0.0000000001     2     1     4    10
 -0.0016089761     2     1     5     2
 -0.0000000001     2     1     5     3
 -0.0233512105     2     1     5     4
 -0.0000000002     2     1     5     5
 0.3425511168     2     1     5    10
 0.0000000027     2     1     6     6
 0.0000000004     2     1     6     7
 0.2629666327     2     1     6     8
 0.2213293506     2     1     6     9
 0.0000000004     2     1     7     6
 -0.0000000004     2     1     7     7
 0.2213293506     2     1     7     8
 -0.2629666327     2     1     7     9
 0.2629766519     2     1     8     6
 0.2213377834     2     1     8     7
 -0.0000000034     2     1     8     8
 -0.0000000015     2     1     8     9
 0.2213377833     2     1     9     6
 -0.2629766519     2     1     9     7
 -0.0000000015     2     1     9     8
 -0.0000000019     2     1     9     9
 0.0000000005     2     1    10     2
 0.0103416075     2     1    10     3
 -0.0000000001     2     1    10     4
 0.3425792608     2     1    10     5
 0.0000000045     2     1    10    10
 0.1511415928     2     2     1     1
 0.0000644941     2     2     1     3
 0.0016089761     2     2     1     5
 -0.0000000005     2     2     1    10
 0.0000644941     2     2     3     1
 0.5297662654     2     2     3     3
 0.0000002833     2     2     3     4
 0.0062854741     2     2     3     5
 0.0000000077     2     2     3    10
 0.0000002833     2     2     4     3
 0.5321658127     2     2     4     4
 -0.0000000179     2     2     4     5
 0.0133956628     2     2     4    10
 0.0016089761     2     2     5     1
 0.0062854741     2     2     5     3
 -0.0000000179     2     2     5     4
 0.5327163364     2     2     5     5
 0.0000002558     2     2     5    10
 0.5353226770     2     2     6     6
 0.0000001955     2     2     6     8
 0.0000001646     2     2     6     9
 0.5353226770     2     2     7     7
 0.0000001646     2     2     7     8
 -0.0000001956     2     2     7     9
 0.0000001955     2     2     8     6
 0.0000001646     2     2     8     7
 0.5058278858     2     2     8     8
 0.0000001646     2     2     9     6
 -0.0000001956     2     2     9     7
 0.5058278858     2     2     9     9
 -0.0000000005     2     2    10     1
 0.0000000077     2     2    10     3
 0.0133956628     2     2    10     4
 0.0000002558     2     2    10     5
 0.5160489010     2     2    10    10
 0.0000000001     2     3     1     1
 -0.0000644941     2     3     1     2
 0.0000129690     2     3     1     4
 -0.0000044702     2     3     1    10
 0.0000000014     2     3     3     1
 -0.5297662654     2     3     3     2
 0.0001417235     2     3     3     4
 -0.0000000003     2     3     3     5
 -0.0008032924     2     3     3    10
 -0.3805333699     2     3     4     1
 -0.0000002833     2     3     4     2
 -0.0000000001     2     3     4     4
 0.0013964915     2     3     4     5
 0.0000000005     2     3     4    10
 0.0000000001     2     3     5     1
 -0.0062854741     2     3     5     2
 0.0005613426     2     3     5     4
 -0.0000000080     2     3     5     5
 -0.0195998581     2     3     5    10
 -0.0000000080     2     3     6     6
 -0.0148310372     2     3     6     8
 -0.0124827391     2     3     6     9
 -0.0000000079     2     3     7     7
 -0.0124827391     2     3     7     8
 0.0148310372     2     3     7     9
 -0.0138716646     2     3     8     6
 -0.0116752703     2     3     8     7
 -0.0000000063     2     3     8     8
 0.0000000001     2     3     8     9
 -0.0116752703     2     3     9     6
 0.0138716646     2     3     9     7
 0.0000000001     2     3     9     8
 -0.0000000064     2     3     9     9
 -0.0103416075     2     3    10     1
 -0.0000000077     2     3    10     2
 0.0000000002     2     3    10     4
 -0.0180437845     2     3    10     5
 -0.0000000069     2     3    10    10
 -0.0000212516     2     4     1     1
 -0.0000129690     2     4     1     3
 -0.0000028536     2     4     1     5
 -0.3805464670     2     4     3     1
 -0.0000002833     2     4     3     2
 -0.0001417235     2     4     3     3
 0.0008359446     2     4     3     5
 0.0000000003     2     4     3    10
 -0.0000000016     2     4     4     1
 -0.5321658127     2     4     4     2
 0.0000000001     2     4     4     3
 -0.0000903749     2     4     4    10
 0.0233512105     2     4     5     1
 0.0000000179     2     4     5     2
 -0.0005613426     2     4     5     3
 -0.0209589447     2     4     5     5
 -0.0000000073     2     4     5    10
 -0.0214950821     2     4     6     6
 -0.0000000055     2     4     6     8
 -0.0000000047     2     4     6     9
 -0.0214950821     2     4     7     7
 -0.0000000046     2     4     7     8
 0.0000000055     2     4     7     9
 -0.0000000052     2     4     8     6
 -0.0000000044     2     4     8     7
 -0.0177183307     2     4     8     8
 -0.0000000044     2     4     9     6
 0.0000000053     2     4     9     7
 -0.0177183307     2     4     9     9
 0.0000000001     2     4    10     1
 -0.0133956628     2     4    10     2
 -0.0000000002     2     4    10     3
 -0.0000000070     2     4    10     5
 -0.0183295826     2     4    10    10
 0.0000000006     2     5     1     1
 -0.0016089761     2     5     1     2
 0.0000028536     2     5     1     4
 -0.0000285801     2     5     1    10
 0.0000000001     2     5     3     1
 -0.0062854741     2     5     3     2
 0.0000000003     2     5     3     3
 -0.0008359446     2     5     3     4
 -0.0007944458     2     5     3    10
 0.0233541760     2     5     4     1
 0.0000000179     2     5     4     2
 -0.0013964915     2     5     4     3
 0.0000000002     2     5     5     1
 -0.5327163364     2     5     5     2
 0.0000000080     2     5     5     3
 0.0209589447     2     5     5     4
 -0.0003628519     2     5     5    10
 0.0000000004     2     5     6     6
 -0.0003682268     2     5     6     8
 -0.0003099230     2     5     6     9
 0.0000000004     2     5     7     7
 -0.0003099230     2     5     7     8
 0.0003682268     2     5     7     9
 -0.0005881748     2     5     8     6
 -0.0004950451     2     5     8     7
 0.0000000004     2     5     8     8
 -0.0004950451     2     5     9     6
 0.0005881748     2     5     9     7
 0.0000000004     2     5     9     9
 -0.3425792608     2     5    10     1
 -0.0000002558     2     5    10     2
 0.0180437845     2     5    10     3
 0.0000000070     2     5    10     4
 0.0000000010     2     5    10    10
 -0.0000107793     2     6     1     8
 -0.0000090726     2     6     1     9
 -0.0003673581     2     6     3     8
 -0.0003091918     2     6     3     9
 -0.0000000001     2     6     4     9
 0.0000204235     2     6     5     8
 0.0000171897     2     6     5     9
 -0.0000000027     2     6     6     1
 -0.5353226770     2     6     6     2
 0.0000000080     2     6     6     3
 0.0214950821     2     6     6     4
 -0.0000000004     2     6     6     5
 0.0003067207     2     6     6    10
 -0.0000000004     2     6     7     1
 -0.2629766519     2     6     8     1
 -0.0000001955     2     6     8     2
 0.0138716646     2     6     8     3
 0.0000000052     2     6     8     4
 0.0005881748     2     6     8     5
 0.0000000006     2     6     8    10
 -0.2213377833     2     6     9     1
 -0.0000001646     2     6     9     2
 0.0116752703     2     6     9     3
 0.0000000044     2     6     9     4
 0.0004950451     2     6     9     5
 0.0000000004     2     6     9    10
 0.0000000001     2     6    10     8
 -0.0000090726     2     7     1     8
 0.0000107793     2     7     1     9
 -0.0003091918     2     7     3     8
 0.0003673581     2     7     3     9
 -0.0000000001     2     7     4     8
 0.0000171897     2     7     5     8
 -0.0000204235     2     7     5     9
 -0.0000000004     2     7     6     1
 0.0000000004     2     7     7     1
 -0.5353226770     2     7     7     2
 0.0000000079     2     7     7     3
 0.0214950821     2     7     7     4
 -0.0000000004     2     7     7     5
 0.0003067207     2     7     7    10
 -0.2213377834     2     7     8     1
 -0.0000001646     2     7     8     2
 0.0116752703     2     7     8     3
 0.0000000044     2     7     8     4
 0.0004950451     2     7     8     5
 0.0000000004     2     7     8    10
 0.2629766519     2     7     9     1
 0.0000001956     2     7     9     2
 -0.0138716646     2     7     9     3
 -0.0000000053     2     7     9     4
 -0.0005881748     2     7     9     5
 -0.0000000006     2     7     9    10
 -0.0000000001     2     7    10     9
 0.0000107793     2     8     1     6
 0.0000090726     2     8     1     7
 0.0003673581     2     8     3     6
 0.0003091918     2     8     3     7
 0.0000000001     2     8     4     7
 -0.0000204235     2     8     5     6
 -0.0000171897     2     8     5     7
 -0.2629666327     2     8     6     1
 -0.0000001955     2     8     6     2
 0.0148310372     2     8     6     3
 0.0000000055     2     8     6     4
 0.0003682268     2     8     6     5
 0.0000000005     2     8     6    10
 -0.2213293506     2     8     7     1
 -0.0000001646     2     8     7     2
 0.0124827391     2     8     7     3
 0.0000000046     2     8     7     4
 0.0003099230     2     8     7     5
 0.0000000004     2     8     7    10
 0.0000000034     2     8     8     1
 -0.5058278858     2     8     8     2
 0.0000000063     2     8     8     3
 0.0177183307     2     8     8     4
 -0.0000000004     2     8     8     5
 0.0003481648     2     8     8    10
 0.0000000015     2     8     9     1
 -0.0000000001     2     8     9     3
 -0.0000000001     2     8    10     6
 0.0000090726     2     9     1     6
 -0.0000107793     2     9     1     7
 0.0003091918     2     9     3     6
 -0.0003673581     2     9     3     7
 0.0000000001     2     9     4     6
 -0.0000171897     2     9     5     6
 0.0000204235     2     9     5     7
 -0.2213293506     2     9     6     1
 -0.0000001646     2     9     6     2
 0.0124827391     2     9     6     3
 0.0000000047     2     9     6     4
 0.0003099230     2     9     6     5
 0.0000000004     2     9     6    10
 0.2629666327     2     9     7     1
 0.0000001956     2     9     7     2
 -0.0148310372     2     9     7     3
 -0.0000000055     2     9     7     4
 -0.0003682268     2     9     7     5
 -0.0000000005     2     9     7    10
 0.0000000015     2     9     8     1
 -0.0000000001     2     9     8     3
 0.0000000019     2     9     9     1
 -0.5058278858     2     9     9     2
 0.0000000064     2     9     9     3
 0.0177183307     2     9     9     4
 -0.0000000004     2     9     9     5
 0.0003481648     2     9     9    10
 0.0000000001     2     9    10     7
 0.0013473597     2    10     1     1
 0.0000000005     2    10     1     2
 0.0000044702     2    10     1     3
 0.0000285801     2    10     1     5
 -0.0103370349     2    10     3     1
 -0.0000000077     2    10     3     2
 0.0008032924     2    10     3     3
 -0.0000000003     2    10     3     4
 0.0007944458     2    10     3     5
 0.0000000001     2    10     4     1
 -0.0133956628     2    10     4     2
 -0.0000000005     2    10     4     3
 0.0000903749     2    10     4     4
 -0.3425511168     2    10     5     1
 -0.0000002558     2    10     5     2
 0.0195998581     2    10     5     3
 0.0000000073     2    10     5     4
 0.0003628519     2    10     5     5
 -0.0003067207     2    10     6     6
 -0.0000000005     2    10     6     8
 -0.0000000004     2    10     6     9
 -0.0003067207     2    10     7     7
 -0.0000000004     2    10     7     8
 0.0000000005     2    10     7     9
 -0.0000000006     2    10     8     6
 -0.0000000004     2    10     8     7
 -0.0003481648     2    10     8     8
 -0.0000000004     2    10     9     6
 0.0000000006     2    10     9     7
 -0.0003481648     2    10     9     9
 -0.0000000045     2    10    10     1
 -0.5160489010     2    10    10     2
 0.0000000069     2    10    10     3
 0.0183295826     2    10    10     4
 -0.0000000010     2    10    10     5
 -0.0000000001     3     1     1     2
 -0.5297795480     3     1     1     3
 0.0000002830     3     1     1     4
 -0.0062879226     3     1     1     5
 0.0000000076     3     1     1    10
 0.0000644941     3     1     2     2
 0.0000000014     3     1     2     3
 -0.3805464670     3     1     2     4
 0.0000000001     3     1     2     5
 -0.0103370349     3     1     2    10
 -0.0000129690     3     1     4     2
 -0.0000000001     3     1     4     3
 -0.0002127517     3     1     4     4
 -0.0000000002     3     1     4     5
 0.0006024400     3     1     4    10
 -0.0007869704     3     1     5     3
 -0.0000000005     3     1     5     4
 -0.0211793133     3     1     5     5
 0.0000000066     3     1     5    10
 -0.0215084920     3     1     6     6
 0.0000000052     3     1     6     8
 0.0000000044     3     1     6     9
 -0.0215084920     3     1     7     7
 0.0000000044     3     1     7     8
 -0.0000000052     3     1     7     9
 0.0000000056     3     1     8     6
 0.0000000046     3     1     8     7
 -0.0174716918     3     1     8     8
 0.0000000047     3     1     9     6
 -0.0000000056     3     1     9     7
 -0.0174716918     3     1     9     9
 0.0000044702     3     1    10     2
 0.0000000003     3     1    10     3
 0.0012483691     3     1    10     4
 0.0000000072     3     1    10     5
 -0.0179033793     3     1    10    10
 0.0000000001     3     2     1     1
 0.0000000014     3     2     1     3
 -0.3805333699     3     2     1     4
 0.0000000001     3     2     1     5
 -0.0103416075     3     2     1    10
 -0.0000644941     3     2     2     1
 -0.5297662654     3     2     2     3
 -0.0000002833     3     2     2     4
 -0.0062854741     3     2     2     5
 -0.0000000077     3     2     2    10
 0.0000129690     3     2     4     1
 0.0001417235     3     2     4     3
 -0.0000000001     3     2     4     4
 0.0005613426     3     2     4     5
 0.0000000002     3     2     4    10
 -0.0000000003     3     2     5     3
 0.0013964915     3     2     5     4
 -0.0000000080     3     2     5     5
 -0.0180437845     3     2     5    10
 -0.0000000080     3     2     6     6
 -0.0138716646     3     2     6     8
 -0.0116752703     3     2     6     9
 -0.0000000079     3     2     7     7
 -0.0116752703     3     2     7     8
 0.0138716646     3     2     7     9
 -0.0148310372     3     2     8     6
 -0.0124827391     3     2     8     7
 -0.0000000063     3     2     8     8
 0.0000000001     3     2     8     9
 -0.0124827391     3     2     9     6
 0.0148310372     3     2     9     7
 0.0000000001     3     2     9     8
 -0.0000000064     3     2     9     9
 -0.0000044702     3     2    10     1
 -0.0008032924     3     2    10     3
 0.0000000005     3     2    10     4
 -0.0195998581     3     2    10     5
 -0.0000000069     3     2    10    10
 0.5297795480     3     3     1     1
 -0.0000000014     3     3     1     2
 0.0000000001     3     3     1     4
 0.0007869704     3     3     1     5
 -0.0000000003     3     3     1    10
 -0.0000000014     3     3     2     1
 0.5297662654     3     3     2     2
 -0.0001417235     3     3     2     4
 0.0000000003     3     3     2     5
 0.0008032924     3     3     2    10
 0.0000000001     3     3     4     1
 -0.0001417235     3     3     4     2
 0.1484565930     3     3     4     4
 -0.0000000002     3     3     4     5
 0.0092633391     3     3     4    10
 0.0007869704     3     3     5     1
 0.0000000003     3     3     5     2
 -0.0000000002     3     3     5     4
 0.3388683927     3     3     5     5
 -0.0000000004     3     3     5    10
 0.3395412934     3     3     6     6
 -0.0000000005     3     3     6     8
 -0.0000000004     3     3     6     9
 0.3395412934     3     3     7     7
 -0.0000000004     3     3     7     8
 0.0000000006     3     3     7     9
 -0.0000000005     3     3     8     6
 -0.0000000004     3     3     8     7
 0.3356830821     3     3     8     8
 -0.0000000004     3     3     9     6
 0.0000000006     3     3     9     7
 0.3356830821     3     3     9     9
 -0.0000000003     3     3    10     1
 0.0008032924     3     3    10     2
 0.0092633391     3     3    10     4
 -0.0000000004     3     3    10     5
 0.3423149754     3     3    10    10
 -0.0000002830     3     4     1     1
 0.3805333699     3     4     1     2
 -0.0000000001     3     4     1     3
 0.0000000003     3     4     1     5
 -0.0006388219     3     4     1    10
 0.3805464670     3     4     2     1
 0.0000002833     3     4     2     2
 0.0001417235     3     4     2     3
 -0.0008359446     3     4     2     5
 -0.0000000003     3     4     2    10
 0.0002127517     3     4     4     1
 0.0000000001     3     4     4     2