&FCI NORB= 10,NELEC= 14,MS2=0,
 ORBSYM=1,1,1,1,1,1,1,1,1,1
 ISYM=1,
&END
 0.1653188636     1     1     2     2
 0.0000000002     1     1     2     3
 -0.0000500039     1     1     2     4
 0.0000000042     1     1     2     5
 0.0016210441     1     1     2    10
 0.0000000002     1     1     3     2
 0.5363850885     1     1     3     3
 -0.0000016298     1     1     3     4
 0.0066844231     1     1     3     5
 -0.0000000640     1     1     3    10
 -0.0000500039     1     1     4     2
 -0.0000016298     1     1     4     3
 0.5399430323     1     1     4     4
 0.0000001319     1     1     4     5
 0.0170020838     1     1     4    10
 0.0000000042     1     1     5     2
 0.0066844231     1     1     5     3
 0.0000001319     1     1     5     4
 0.5377404968     1     1     5     5
 -0.0000014600     1     1     5    10
 0.5418881505     1     1     6     6
 0.0000003863     1     1     6     8
 0.0000014227     1     1     6     9
 0.5418881517     1     1     7     7
 -0.0000014227     1     1     7     8
 0.0000003863     1     1     7     9
 0.0000003863     1     1     8     6
 -0.0000014227     1     1     8     7
 0.5139200821     1     1     8     8
 0.0000014227     1     1     9     6
 0.0000003863     1     1     9     7
 0.5139200822     1     1     9     9
 0.0016210441     1     1    10     2
 -0.0000000640     1     1    10     3
 0.0170020838     1     1    10     4
 -0.0000014600     1     1    10     5
 0.5273455124     1     1    10    10
 -0.1653188636     1     2     2     1
 -0.0000754167     1     2     2     3
 -0.0000000001     1     2     2     4
 -0.0019146284     1     2     2     5
 0.0000000035     1     2     2    10
 -0.0000000002     1     2     3     1
 -0.0000000078     1     2     3     3
 0.3735713286     1     2     3     4
 -0.0000000004     1     2     3     5
 0.0146126440     1     2     3    10
 0.0000500039     1     2     4     1
 0.3735842314     1     2     4     3
 0.0000000083     1     2     4     4
 -0.0304141939     1     2     4     5
 -0.0000000010     1     2     4    10
 -0.0000000042     1     2     5     1
 -0.0000000004     1     2     5     3
 -0.0304182789     1     2     5     4
 -0.0000000173     1     2     5     5
 0.3344963691     1     2     5    10
 0.0000000120     1     2     6     6
 0.0000000002     1     2     6     7
 -0.0885071301     1     2     6     8
 -0.3259733976     1     2     6     9
 0.0000000002     1     2     7     6
 0.0000000099     1     2     7     7
 0.3259733986     1     2     7     8
 -0.0885071303     1     2     7     9
 -0.0885026233     1     2     8     6
 0.3259567999     1     2     8     7
 -0.0000000115     1     2     8     8
 0.0000000004     1     2     8     9
 -0.3259567989     1     2     9     6
 -0.0885026236     1     2     9     7
 0.0000000004     1     2     9     8
 -0.0000000109     1     2     9     9
 -0.0016210441     1     2    10     1
 0.0146067148     1     2    10     3
 -0.0000000010     1     2    10     4
 0.3344593849     1     2    10     5
 0.0000000181     1     2    10    10
 -0.0000000002     1     3     2     1
 0.0000754167     1     3     2     2
 -0.0000128052     1     3     2     4
 0.0000057804     1     3     2    10
 -0.5363850885     1     3     3     1
 0.0000000078     1     3     3     2
 -0.0000000003     1     3     3     4
 -0.0009713805     1     3     3     5
 0.0000000021     1     3     3    10
 0.0000016298     1     3     4     1
 -0.3735842314     1     3     4     2
 -0.0002409090     1     3     4     4
 -0.0000000038     1     3     4     5
 0.0015547864     1     3     4    10
 -0.0066844231     1     3     5     1
 0.0000000004     1     3     5     2
 -0.0000000017     1     3     5     4
 -0.0209739716     1     3     5     5
 0.0000000430     1     3     5    10
 -0.0214710189     1     3     6     6
 -0.0000000112     1     3     6     8
 -0.0000000411     1     3     6     9
 -0.0214710190     1     3     7     7
 0.0000000412     1     3     7     8
 -0.0000000111     1     3     7     9
 -0.0000000104     1     3     8     6
 0.0000000383     1     3     8     7
 -0.0175501054     1     3     8     8
 -0.0000000383     1     3     9     6
 -0.0000000104     1     3     9     7
 -0.0175501054     1     3     9     9
 0.0000000640     1     3    10     1
 -0.0146067148     1     3    10     2
 0.0007699056     1     3    10     4
 0.0000000390     1     3    10     5
 -0.0181364994     1     3    10    10
 0.0000500039     1     4     2     1
 0.0000000001     1     4     2     2
 0.0000128052     1     4     2     3
 0.0000039181     1     4     2     5
 0.0000016298     1     4     3     1
 -0.3735713286     1     4     3     2
 0.0000000003     1     4     3     3
 -0.0000000021     1     4     3     5
 0.0007717463     1     4     3    10
 -0.5399430323     1     4     4     1
 -0.0000000083     1     4     4     2
 0.0002409090     1     4     4     3
 -0.0000839741     1     4     4     5
 0.0000000001     1     4     4    10
 -0.0000001319     1     4     5     1
 0.0304182789     1     4     5     2
 0.0000000017     1     4     5     3
 0.0000000458     1     4     5     5
 -0.0193239601     1     4     5    10
 0.0000000459     1     4     6     6
 0.0050581842     1     4     6     8
 0.0186293858     1     4     6     9
 0.0000000461     1     4     7     7
 -0.0186293860     1     4     7     8
 0.0050581842     1     4     7     9
 0.0047990516     1     4     8     6
 -0.0176749959     1     4     8     7
 0.0000000394     1     4     8     8
 0.0176749959     1     4     9     6
 0.0047990516     1     4     9     7
 0.0000000394     1     4     9     9
 -0.0170020838     1     4    10     1
 0.0000000010     1     4    10     2
 -0.0007699056     1     4    10     3
 -0.0182892392     1     4    10     5
 0.0000000398     1     4    10    10
 -0.0000000042     1     5     2     1
 0.0019146284     1     5     2     2
 -0.0000039181     1     5     2     4
 0.0000373988     1     5     2    10
 -0.0066844231     1     5     3     1
 0.0000000004     1     5     3     2
 0.0009713805     1     5     3     3
 0.0000000021     1     5     3     4
 0.0000000022     1     5     3    10
 -0.0000001319     1     5     4     1
 0.0304141939     1     5     4     2
 0.0000000038     1     5     4     3
 0.0000839741     1     5     4     4
 -0.0001617063     1     5     4    10
 -0.5377404968     1     5     5     1
 0.0000000173     1     5     5     2
 0.0209739716     1     5     5     3
 -0.0000000458     1     5     5     4
 0.0000000006     1     5     5    10
 0.0012784752     1     5     6     6
 -0.0000000003     1     5     6     8
 -0.0000000010     1     5     6     9
 0.0012784752     1     5     7     7
 0.0000000011     1     5     7     8
 -0.0000000003     1     5     7     9
 -0.0000000005     1     5     8     6
 0.0000000018     1     5     8     7
 0.0010281723     1     5     8     8
 -0.0000000017     1     5     9     6
 -0.0000000005     1     5     9     7
 0.0010281723     1     5     9     9
 0.0000014600     1     5    10     1
 -0.3344593849     1     5    10     2
 -0.0000000390     1     5    10     3
 0.0182892392     1     5    10     4
 0.0031529419     1     5    10    10
 -0.0000048062     1     6     2     8
 -0.0000177014     1     6     2     9
 -0.0000000003     1     6     3     8
 -0.0000000011     1     6     3     9
 0.0000414585     1     6     4     8
 0.0001526925     1     6     4     9
 -0.5418881505     1     6     6     1
 -0.0000000120     1     6     6     2
 0.0214710189     1     6     6     3
 -0.0000000459     1     6     6     4
 -0.0012784752     1     6     6     5
 -0.0000000011     1     6     6    10
 -0.0000000002     1     6     7     2
 -0.0000003863     1     6     8     1
 0.0885026233     1     6     8     2
 0.0000000104     1     6     8     3
 -0.0047990516     1     6     8     4
 0.0000000005     1     6     8     5
 -0.0005641783     1     6     8    10
 -0.0000014227     1     6     9     1
 0.3259567989     1     6     9     2
 0.0000000383     1     6     9     3
 -0.0176749959     1     6     9     4
 0.0000000017     1     6     9     5
 -0.0020778791     1     6     9    10
 -0.0000176354     1     6    10     8
 -0.0000649514     1     6    10     9
 0.0000177014     1     7     2     8
 -0.0000048062     1     7     2     9
 0.0000000011     1     7     3     8
 -0.0000000003     1     7     3     9
 -0.0001526924     1     7     4     8
 0.0000414585     1     7     4     9
 -0.0000000001     1     7     5     8
 -0.0000000002     1     7     6     2
 -0.5418881517     1     7     7     1
 -0.0000000099     1     7     7     2
 0.0214710190     1     7     7     3
 -0.0000000461     1     7     7     4
 -0.0012784752     1     7     7     5
 -0.0000000011     1     7     7    10
 0.0000014227     1     7     8     1
 -0.3259567999     1     7     8     2
 -0.0000000383     1     7     8     3
 0.0176749959     1     7     8     4
 -0.0000000018     1     7     8     5
 0.0020778791     1     7     8    10
 -0.0000003863     1     7     9     1
 0.0885026236     1     7     9     2
 0.0000000104     1     7     9     3
 -0.0047990516     1     7     9     4
 0.0000000005     1     7     9     5
 -0.0005641783     1     7     9    10
 0.0000649514     1     7    10     8
 -0.0000176354     1     7    10     9
 0.0000048062     1     8     2     6
 -0.0000177014     1     8     2     7
 0.0000000003     1     8     3     6
 -0.0000000011     1     8     3     7
 -0.0000414585     1     8     4     6
 0.0001526924     1     8     4     7
 0.0000000001     1     8     5     7
 -0.0000003863     1     8     6     1
 0.0885071301     1     8     6     2
 0.0000000112     1     8     6     3
 -0.0050581842     1     8     6     4
 0.0000000003     1     8     6     5
 -0.0005818770     1     8     6    10
 0.0000014227     1     8     7     1
 -0.3259733986     1     8     7     2
 -0.0000000412     1     8     7     3
 0.0186293860     1     8     7     4
 -0.0000000011     1     8     7     5
 0.0021430635     1     8     7    10
 -0.5139200821     1     8     8     1
 0.0000000115     1     8     8     2
 0.0175501054     1     8     8     3
 -0.0000000394     1     8     8     4
 -0.0010281723     1     8     8     5
 -0.0000000014     1     8     8    10
 -0.0000000004     1     8     9     2
 0.0000176354     1     8    10     6
 -0.0000649514     1     8    10     7
 0.0000177014     1     9     2     6
 0.0000048062     1     9     2     7
 0.0000000011     1     9     3     6
 0.0000000003     1     9     3     7
 -0.0001526925     1     9     4     6
 -0.0000414585     1     9     4     7
 -0.0000014227     1     9     6     1
 0.3259733976     1     9     6     2
 0.0000000411     1     9     6     3
 -0.0186293858     1     9     6     4
 0.0000000010     1     9     6     5
 -0.0021430635     1     9     6    10
 -0.0000003863     1     9     7     1
 0.0885071303     1     9     7     2
 0.0000000111     1     9     7     3
 -0.0050581842     1     9     7     4
 0.0000000003     1     9     7     5
 -0.0005818770     1     9     7    10
 -0.0000000004     1     9     8     2
 -0.5139200822     1     9     9     1
 0.0000000109     1     9     9     2
 0.0175501054     1     9     9     3
 -0.0000000394     1     9     9     4
 -0.0010281723     1     9     9     5
 -0.0000000014     1     9     9    10
 0.0000649514     1     9    10     6
 0.0000176354     1     9    10     7
 -0.0016210441     1    10     2     1
 -0.0000000035     1    10     2     2
 -0.0000057804     1    10     2     3
 -0.0000373988     1    10     2     5
 0.0000000640     1    10     3     1
 -0.0146126440     1    10     3     2
 -0.0000000021     1    10     3     3
 -0.0007717463     1    10     3     4
 -0.0000000022     1    10     3     5
 -0.0170020838     1    10     4     1
 0.0000000010     1    10     4     2
 -0.0015547864     1    10     4     3
 -0.0000000001     1    10     4     4
 0.0001617063     1    10     4     5
 0.0000014600     1    10     5     1
 -0.3344963691     1    10     5     2
 -0.0000000430     1    10     5     3
 0.0193239601     1    10     5     4
 -0.0000000006     1    10     5     5
 0.0000000011     1    10     6     6
 0.0005818770     1    10     6     8
 0.0021430635     1    10     6     9
 0.0000000011     1    10     7     7
 -0.0021430635     1    10     7     8
 0.0005818770     1    10     7     9
 0.0005641783     1    10     8     6
 -0.0020778791     1    10     8     7
 0.0000000014     1    10     8     8
 0.0020778791     1    10     9     6
 0.0005641783     1    10     9     7
 0.0000000014     1    10     9     9
 -0.5273455124     1    10    10     1
 -0.0000000181     1    10    10     2
 0.0181364994     1    10    10     3
 -0.0000000398     1    10    10     4
 -0.0031529419     1    10    10     5
 -0.1653188636     2     1     1     2
 -0.0000000002     2     1     1     3
 0.0000500039     2     1     1     4
 -0.0000000042     2     1     1     5
 -0.0016210441     2     1     1    10
 -0.0000754167     2     1     3     2
 -0.0000000078     2     1     3     3
 0.3735842314     2     1     3     4
 -0.0000000004     2     1     3     5
 0.0146067148     2     1     3    10
 -0.0000000001     2     1     4     2
 0.3735713286     2     1     4     3
 0.0000000083     2     1     4     4
 -0.0304182789     2     1     4     5
 -0.0000000010     2     1     4    10
 -0.0019146284     2     1     5     2
 -0.0000000004     2     1     5     3
 -0.0304141939     2     1     5     4
 -0.0000000173     2     1     5     5
 0.3344593849     2     1     5    10
 0.0000000120     2     1     6     6
 0.0000000002     2     1     6     7
 -0.0885026233     2     1     6     8
 -0.3259567989     2     1     6     9
 0.0000000002     2     1     7     6
 0.0000000099     2     1     7     7
 0.3259567999     2     1     7     8
 -0.0885026236     2     1     7     9
 -0.0885071301     2     1     8     6
 0.3259733986     2     1     8     7
 -0.0000000115     2     1     8     8
 0.0000000004     2     1     8     9
 -0.3259733976     2     1     9     6
 -0.0885071303     2     1     9     7
 0.0000000004     2     1     9     8
 -0.0000000109     2     1     9     9
 0.0000000035     2     1    10     2
 0.0146126440     2     1    10     3
 -0.0000000010     2     1    10     4
 0.3344963691     2     1    10     5
 0.0000000181     2     1    10    10
 0.1653188636     2     2     1     1
 0.0000754167     2     2     1     3
 0.0000000001     2     2     1     4
 0.0019146284     2     2     1     5
 -0.0000000035     2     2     1    10
 0.0000754167     2     2     3     1
 0.5363718925     2     2     3     3
 0.0000016302     2     2     3     4
 0.0066814611     2     2     3     5
 0.0000000635     2     2     3    10
 0.0000000001     2     2     4     1
 0.0000016302     2     2     4     3
 0.5399555894     2     2     4     4
 -0.0000001335     2     2     4     5
 0.0169969855     2     2     4    10
 0.0019146284     2     2     5     1
 0.0066814611     2     2     5     3
 -0.0000001335     2     2     5     4
 0.5377827254     2     2     5     5
 0.0000014588     2     2     5    10
 0.5419101764     2     2     6     6
 -0.0000003861     2     2     6     8
 -0.0000014219     2     2     6     9
 0.5419101776     2     2     7     7
 0.0000014217     2     2     7     8
 -0.0000003860     2     2     7     9
 -0.0000003861     2     2     8     6
 0.0000014217     2     2     8     7
 0.5139051440     2     2     8     8
 -0.0000014219     2     2     9     6
 -0.0000003860     2     2     9     7
 0.5139051441     2     2     9     9
 -0.0000000035     2     2    10     1
 0.0000000635     2     2    10     3
 0.0169969855     2     2    10     4
 0.0000014588     2     2    10     5
 0.5273108203     2     2    10    10
 0.0000000002     2     3     1     1
 -0.0000754167     2     3     1     2
 0.0000128052     2     3     1     4
 -0.0000057804     2     3     1    10
 0.0000000078     2     3     3     1
 -0.5363718925     2     3     3     2
 0.0001412495     2     3     3     4
 -0.0000000021     2     3     3     5
 -0.0009910869     2     3     3    10
 -0.3735713286     2     3     4     1
 -0.0000016302     2     3     4     2
 -0.0000000005     2     3     4     4
 0.0017187061     2     3     4     5
 0.0000000034     2     3     4    10
 0.0000000004     2     3     5     1
 -0.0066814611     2     3     5     2
 0.0007447578     2     3     5     4
 -0.0000000447     2     3     5     5
 -0.0196439723     2     3     5    10
 -0.0000000474     2     3     6     6
 0.0050848529     2     3     6     8
 0.0187276074     2     3     6     9
 -0.0000000471     2     3     7     7
 -0.0187276074     2     3     7     8
 0.0050848529     2     3     7     9
 0.0047394095     2     3     8     6
 -0.0174553330     2     3     8     7
 -0.0000000375     2     3     8     8
 0.0174553330     2     3     9     6
 0.0047394095     2     3     9     7
 -0.0000000376     2     3     9     9
 -0.0146126440     2     3    10     1
 -0.0000000635     2     3    10     2
 0.0000000017     2     3    10     4
 -0.0178757095     2     3    10     5
 -0.0000000403     2     3    10    10
 -0.0000500039     2     4     1     1
 -0.0000000001     2     4     1     2
 -0.0000128052     2     4     1     3
 -0.0000039181     2     4     1     5
 -0.3735842314     2     4     3     1
 -0.0000016302     2     4     3     2
 -0.0001412495     2     4     3     3
 0.0009730867     2     4     3     5
 0.0000000017     2     4     3    10
 -0.0000000083     2     4     4     1
 -0.5399555894     2     4     4     2
 0.0000000005     2     4     4     3
 -0.0000000002     2     4     4     5
 -0.0000315010     2     4     4    10
 0.0304141939     2     4     5     1
 0.0000001335     2     4     5     2
 -0.0007447578     2     4     5     3
 -0.0207117886     2     4     5     5
 -0.0000000424     2     4     5    10
 -0.0214911259     2     4     6     6
 0.0000000111     2     4     6     8
 0.0000000409     2     4     6     9
 -0.0214911261     2     4     7     7
 -0.0000000408     2     4     7     8
 0.0000000111     2     4     7     9
 0.0000000105     2     4     8     6
 -0.0000000387     2     4     8     7
 -0.0178986131     2     4     8     8
 0.0000000387     2     4     9     6
 0.0000000104     2     4     9     7
 -0.0178986132     2     4     9     9
 0.0000000010     2     4    10     1
 -0.0169969855     2     4    10     2
 -0.0000000017     2     4    10     3
 -0.0000000402     2     4    10     5
 -0.0187289743     2     4    10    10
 0.0000000042     2     5     1     1
 -0.0019146284     2     5     1     2
 0.0000039181     2     5     1     4
 -0.0000373988     2     5     1    10
 0.0000000004     2     5     3     1
 -0.0066814611     2     5     3     2
 0.0000000021     2     5     3     3
 -0.0009730867     2     5     3     4
 -0.0009774783     2     5     3    10
 0.0304182789     2     5     4     1
 0.0000001335     2     5     4     2
 -0.0017187061     2     5     4     3
 0.0000000002     2     5     4     4
 -0.0000000003     2     5     4    10
 0.0000000173     2     5     5     1
 -0.5377827254     2     5     5     2
 0.0000000447     2     5     5     3
 0.0207117886     2     5     5     4
 -0.0002617786     2     5     5    10
 0.0000000029     2     5     6     6
 0.0001271504     2     5     6     8
 0.0004682971     2     5     6     9
 0.0000000027     2     5     7     7
 -0.0004682971     2     5     7     8
 0.0001271504     2     5     7     9
 0.0002133755     2     5     8     6
 -0.0007858659     2     5     8     7
 0.0000000024     2     5     8     8
 0.0007858659     2     5     9     6
 0.0002133755     2     5     9     7
 0.0000000023     2     5     9     9
 -0.3344963691     2     5    10     1
 -0.0000014588     2     5    10     2
 0.0178757095     2     5    10     3
 0.0000000402     2     5    10     4
 0.0000000069     2     5    10    10
 0.0000048062     2     6     1     8
 0.0000177014     2     6     1     9
 0.0001390892     2     6     3     8
 0.0005122680     2     6     3     9
 0.0000000002     2     6     4     8
 0.0000000004     2     6     4     9
 -0.0000037198     2     6     5     8
 -0.0000137000     2     6     5     9
 -0.0000000120     2     6     6     1
 -0.5419101764     2     6     6     2
 0.0000000474     2     6     6     3
 0.0214911259     2     6     6     4
 -0.0000000029     2     6     6     5
 0.0005217370     2     6     6    10
 -0.0000000002     2     6     7     1
 0.0885071301     2     6     8     1
 0.0000003861     2     6     8     2
 -0.0047394095     2     6     8     3
 -0.0000000105     2     6     8     4
 -0.0002133755     2     6     8     5
 -0.0000000012     2     6     8    10
 0.3259733976     2     6     9     1
 0.0000014219     2     6     9     2
 -0.0174553330     2     6     9     3
 -0.0000000387     2     6     9     4
 -0.0007858659     2     6     9     5
 -0.0000000045     2     6     9    10
 -0.0000000001     2     6    10     8
 -0.0000000001     2     6    10     9
 -0.0000177014     2     7     1     8
 0.0000048062     2     7     1     9
 -0.0005122679     2     7     3     8
 0.0001390892     2     7     3     9
 -0.0000000004     2     7     4     8
 0.0000000001     2     7     4     9
 0.0000136999     2     7     5     8
 -0.0000037198     2     7     5     9
 -0.0000000002     2     7     6     1
 -0.0000000099     2     7     7     1
 -0.5419101776     2     7     7     2
 0.0000000471     2     7     7     3
 0.0214911261     2     7     7     4
 -0.0000000027     2     7     7     5
 0.0005217369     2     7     7    10
 -0.3259733986     2     7     8     1
 -0.0000014217     2     7     8     2
 0.0174553330     2     7     8     3
 0.0000000387     2     7     8     4
 0.0007858659     2     7     8     5
 0.0000000046     2     7     8    10
 0.0885071303     2     7     9     1
 0.0000003860     2     7     9     2
 -0.0047394095     2     7     9     3
 -0.0000000104     2     7     9     4
 -0.0002133755     2     7     9     5
 -0.0000000012     2     7     9    10
 0.0000000002     2     7    10     8
 -0.0000000001     2     7    10     9
 -0.0000048062     2     8     1     6
 0.0000177014     2     8     1     7
 -0.0001390892     2     8     3     6
 0.0005122679     2     8     3     7
 -0.0000000002     2     8     4     6
 0.0000000004     2     8     4     7
 0.0000037198     2     8     5     6
 -0.0000136999     2     8     5     7
 0.0885026233     2     8     6     1
 0.0000003861     2     8     6     2
 -0.0050848529     2     8     6     3
 -0.0000000111     2     8     6     4
 -0.0001271504     2     8     6     5
 -0.0000000013     2     8     6    10
 -0.3259567999     2     8     7     1
 -0.0000014217     2     8     7     2
 0.0187276074     2     8     7     3
 0.0000000408     2     8     7     4
 0.0004682971     2     8     7     5
 0.0000000047     2     8     7    10
 0.0000000115     2     8     8     1
 -0.5139051440     2     8     8     2
 0.0000000375     2     8     8     3
 0.0178986131     2     8     8     4
 -0.0000000024     2     8     8     5
 0.0005902864     2     8     8    10
 -0.0000000004     2     8     9     1
 0.0000000001     2     8    10     6
 -0.0000000002     2     8    10     7
 -0.0000177014     2     9     1     6
 -0.0000048062     2     9     1     7
 -0.0005122680     2     9     3     6
 -0.0001390892     2     9     3     7
 -0.0000000004     2     9     4     6
 -0.0000000001     2     9     4     7
 0.0000137000     2     9     5     6
 0.0000037198     2     9     5     7
 0.3259567989     2     9     6     1
 0.0000014219     2     9     6     2
 -0.0187276074     2     9     6     3
 -0.0000000409     2     9     6     4
 -0.0004682971     2     9     6     5
 -0.0000000047     2     9     6    10
 0.0885026236     2     9     7     1
 0.0000003860     2     9     7     2
 -0.0050848529     2     9     7     3
 -0.0000000111     2     9     7     4
 -0.0001271504     2     9     7     5
 -0.0000000013     2     9     7    10
 -0.0000000004     2     9     8     1
 0.0000000109     2     9     9     1
 -0.5139051441     2     9     9     2
 0.0000000376     2     9     9     3
 0.0178986132     2     9     9     4
 -0.0000000023     2     9     9     5
 0.0005902864     2     9     9    10
 0.0000000001     2     9    10     6
 0.0000000001     2     9    10     7
 0.0016210441     2    10     1     1
 0.0000000035     2    10     1     2
 0.0000057804     2    10     1     3
 0.0000373988     2    10     1     5
 -0.0146067148     2    10     3     1
 -0.0000000635     2    10     3     2
 0.0009910869     2    10     3     3
 -0.0000000017     2    10     3     4
 0.0009774783     2    10     3     5
 0.0000000010     2    10     4     1
 -0.0169969855     2    10     4     2
 -0.0000000034     2    10     4     3
 0.0000315010     2    10     4     4
 0.0000000003     2    10     4     5
 -0.3344593849     2    10     5     1
 -0.0000014588     2    10     5     2
 0.0196439723     2    10     5     3
 0.0000000424     2    10     5     4
 0.0002617786     2    10     5     5
 -0.0005217370     2    10     6     6
 0.0000000013     2    10     6     8
 0.0000000047     2    10     6     9
 -0.0005217369     2    10     7     7
 -0.0000000047     2    10     7     8
 0.0000000013     2    10     7     9
 0.0000000012     2    10     8     6
 -0.0000000046     2    10     8     7
 -0.0005902864     2    10     8     8
 0.0000000045     2    10     9     6
 0.0000000012     2    10     9     7
 -0.0005902864     2    10     9     9
 -0.0000000181     2    10    10     1
 -0.5273108203     2    10    10     2
 0.0000000403     2    10    10     3
 0.0187289743     2    10    10     4
 -0.0000000069     2    10    10     5
 -0.0000000002     3     1     1     2
 -0.5363850885     3     1     1     3
 0.0000016298     3     1     1     4
 -0.0066844231     3     1     1     5
 0.0000000640     3     1     1    10
 0.0000754167     3     1     2     2
 0.0000000078     3     1     2     3
 -0.3735842314     3     1     2     4
 0.0000000004     3     1     2     5
 -0.0146067148     3     1     2    10
 -0.0000128052     3     1     4     2
 -0.0000000003     3     1     4     3
 -0.0002409090     3     1     4     4
 -0.0000000017     3     1     4     5
 0.0007699056     3     1     4    10
 -0.0009713805     3     1     5     3
 -0.0000000038     3     1     5     4
 -0.0209739716     3     1     5     5
 0.0000000390     3     1     5    10
 -0.0214710189     3     1     6     6
 -0.0000000104     3     1     6     8
 -0.0000000383     3     1     6     9
 -0.0214710190     3     1     7     7
 0.0000000383     3     1     7     8
 -0.0000000104     3     1     7     9
 -0.0000000112     3     1     8     6
 0.0000000412     3     1     8     7
 -0.0175501054     3     1     8     8
 -0.0000000411     3     1     9     6
 -0.0000000111     3     1     9     7
 -0.0175501054     3     1     9     9
 0.0000057804     3     1    10     2
 0.0000000021     3     1    10     3
 0.0015547864     3     1    10     4
 0.0000000430     3     1    10     5
 -0.0181364994     3     1    10    10
 0.0000000002     3     2     1     1
 0.0000000078     3     2     1     3
 -0.3735713286     3     2     1     4
 0.0000000004     3     2     1     5
 -0.0146126440     3     2     1    10
 -0.0000754167     3     2     2     1
 -0.5363718925     3     2     2     3
 -0.0000016302     3     2     2     4
 -0.0066814611     3     2     2     5
 -0.0000000635     3     2     2    10
 0.0000128052     3     2     4     1
 0.0001412495     3     2     4     3
 -0.0000000005     3     2     4     4
 0.0007447578     3     2     4     5
 0.0000000017     3     2     4    10
 -0.0000000021     3     2     5     3
 0.0017187061     3     2     5     4
 -0.0000000447     3     2     5     5
 -0.0178757095     3     2     5    10
 -0.0000000474     3     2     6     6
 0.0047394095     3     2     6     8
 0.0174553330     3     2     6     9
 -0.0000000471     3     2     7     7
 -0.0174553330     3     2     7     8
 0.0047394095     3     2     7     9
 0.0050848529     3     2     8     6
 -0.0187276074     3     2     8     7
 -0.0000000375     3     2     8     8
 0.0187276074     3     2     9     6
 0.0050848529     3     2     9     7
 -0.0000000376     3     2     9     9
 -0.0000057804     3     2    10     1
 -0.0009910869     3     2    10     3
 0.0000000034     3     2    10     4
 -0.0196439723     3     2    10     5
 -0.0000000403     3     2    10    10
 0.5363850885     3     3     1     1
 -0.0000000078     3     3     1     2
 0.0000000003     3     3     1     4
 0.0009713805     3     3     1     5
 -0.0000000021     3     3     1    10
 -0.0000000078     3     3     2     1
 0.5363718925     3     3     2     2
 -0.0001412495     3     3     2     4
 0.0000000021     3     3     2     5
 0.0009910869     3     3     2    10
 0.0000000003     3     3     4     1
 -0.0001412495     3     3     4     2
 0.1624168367     3     3     4     4
 0.0103686853     3     3     4    10
 0.0009713805     3     3     5     1
 0.0000000021     3     3     5     2
 0.3444611333     3     3     5     5
 -0.0000000043     3     3     5    10
 0.3457547974     3     3     6     6
 0.0000000009     3     3     6     8
 0.0000000033     3     3     6     9
 0.3457547982     3     3     7     7
 -0.0000000035     3     3     7     8
 0.0000000010     3     3     7     9
 0.0000000009     3     3     8     6
 -0.0000000035     3     3     8     7
 0.3431408022     3     3     8     8
 0.0000000001     3     3     8     9
 0.0000000033     3     3     9     6
 0.0000000010     3     3     9     7
 0.0000000001     3     3     9     8
 0.3431408025     3     3     9     9
 -0.0000000021     3     3    10     1
 0.0009910869     3     3    10     2
 0.0103686853     3     3    10     4