&FCI NORB= 10,NELEC= 14,MS2=0,
 ORBSYM=1,1,1,1,1,1,1,1,1,1
 ISYM=1,
&END
 0.1706545550     1     1     2     2
 0.0000000001     1     1     2     3
 -0.0000631743     1     1     2     4
 0.0000000009     1     1     2     5
 0.0017323594     1     1     2    10
 0.0000000001     1     1     3     2
 0.5388446367     1     1     3     3
 -0.0000003391     1     1     3     4
 0.0068264298     1     1     3     5
 -0.0000000152     1     1     3    10
 -0.0000631743     1     1     4     2
 -0.0000003391     1     1     4     3
 0.5428953269     1     1     4     4
 0.0000000310     1     1     4     5
 0.0184623939     1     1     4    10
 0.0000000009     1     1     5     2
 0.0068264298     1     1     5     3
 0.0000000310     1     1     5     4
 0.5396051806     1     1     5     5
 -0.0000003039     1     1     5    10
 0.5442617096     1     1     6     6
 0.0000002991     1     1     6     8
 0.0000000649     1     1     6     9
 0.5442617096     1     1     7     7
 -0.0000000649     1     1     7     8
 0.0000002991     1     1     7     9
 0.0000002991     1     1     8     6
 -0.0000000649     1     1     8     7
 0.5169194286     1     1     8     8
 0.0000000649     1     1     9     6
 0.0000002991     1     1     9     7
 0.5169194286     1     1     9     9
 0.0017323594     1     1    10     2
 -0.0000000152     1     1    10     3
 0.0184623939     1     1    10     4
 -0.0000003039     1     1    10     5
 0.5315797322     1     1    10    10
 -0.1706545550     1     2     2     1
 -0.0000810943     1     2     2     3
 -0.0020349471     1     2     2     5
 0.0000000008     1     2     2    10
 -0.0000000001     1     2     3     1
 -0.0000000007     1     2     3     3
 0.3709330866     1     2     3     4
 -0.0000000001     1     2     3     5
 0.0164560866     1     2     3    10
 0.0000631743     1     2     4     1
 0.3709458973     1     2     4     3
 0.0000000007     1     2     4     4
 -0.0334706243     1     2     4     5
 -0.0000000001     1     2     4    10
 -0.0000000009     1     2     5     1
 -0.0000000001     1     2     5     3
 -0.0334752238     1     2     5     4
 -0.0000000037     1     2     5     5
 0.3310748851     1     2     5    10
 0.0000000011     1     2     6     6
 0.0000000001     1     2     6     7
 -0.3277619037     1     2     6     8
 -0.0711029319     1     2     6     9
 0.0000000001     1     2     7     6
 0.0000000014     1     2     7     7
 0.0711029319     1     2     7     8
 -0.3277619037     1     2     7     9
 -0.3277433806     1     2     8     6
 0.0710989137     1     2     8     7
 0.0000000008     1     2     8     8
 -0.0710989137     1     2     9     6
 -0.3277433806     1     2     9     7
 0.0000000004     1     2     9     9
 -0.0017323594     1     2    10     1
 0.0164496143     1     2    10     3
 -0.0000000001     1     2    10     4
 0.3310341485     1     2    10     5
 -0.0000000007     1     2    10    10
 -0.0000000001     1     3     2     1
 0.0000810943     1     3     2     2
 -0.0000127263     1     3     2     4
 0.0000063042     1     3     2    10
 -0.5388446367     1     3     3     1
 0.0000000007     1     3     3     2
 -0.0000000001     1     3     3     4
 -0.0010564111     1     3     3     5
 0.0000000005     1     3     3    10
 0.0000003391     1     3     4     1
 -0.3709458973     1     3     4     2
 -0.0002533375     1     3     4     4
 -0.0000000009     1     3     4     5
 0.0016791709     1     3     4    10
 -0.0068264298     1     3     5     1
 0.0000000001     1     3     5     2
 -0.0000000004     1     3     5     4
 -0.0208873920     1     3     5     5
 0.0000000091     1     3     5    10
 -0.0214467423     1     3     6     6
 -0.0000000087     1     3     6     8
 -0.0000000019     1     3     6     9
 -0.0214467423     1     3     7     7
 0.0000000018     1     3     7     8
 -0.0000000086     1     3     7     9
 -0.0000000080     1     3     8     6
 0.0000000018     1     3     8     7
 -0.0175763167     1     3     8     8
 -0.0000000017     1     3     9     6
 -0.0000000081     1     3     9     7
 -0.0175763167     1     3     9     9
 0.0000000152     1     3    10     1
 -0.0164496143     1     3    10     2
 0.0008419950     1     3    10     4
 0.0000000082     1     3    10     5
 -0.0182188500     1     3    10    10
 0.0000631743     1     4     2     1
 0.0000127263     1     4     2     3
 0.0000044063     1     4     2     5
 0.0000003391     1     4     3     1
 -0.3709330866     1     4     3     2
 0.0000000001     1     4     3     3
 -0.0000000004     1     4     3     5
 0.0008202359     1     4     3    10
 -0.5428953269     1     4     4     1
 -0.0000000007     1     4     4     2
 0.0002533375     1     4     4     3
 -0.0000546083     1     4     4     5
 -0.0000000310     1     4     5     1
 0.0334752238     1     4     5     2
 0.0000000004     1     4     5     3
 0.0000000097     1     4     5     5
 -0.0193065467     1     4     5    10
 0.0000000097     1     4     6     6
 0.0188617329     1     4     6     8
 0.0040917645     1     4     6     9
 0.0000000096     1     4     7     7
 -0.0040917645     1     4     7     8
 0.0188617329     1     4     7     9
 0.0178988790     1     4     8     6
 -0.0038828881     1     4     8     7
 0.0000000082     1     4     8     8
 0.0038828881     1     4     9     6
 0.0178988790     1     4     9     7
 0.0000000082     1     4     9     9
 -0.0184623939     1     4    10     1
 0.0000000001     1     4    10     2
 -0.0008419950     1     4    10     3
 -0.0182410909     1     4    10     5
 0.0000000087     1     4    10    10
 -0.0000000009     1     5     2     1
 0.0020349471     1     5     2     2
 -0.0000044063     1     5     2     4
 0.0000411447     1     5     2    10
 -0.0068264298     1     5     3     1
 0.0000000001     1     5     3     2
 0.0010564111     1     5     3     3
 0.0000000004     1     5     3     4
 0.0000000005     1     5     3    10
 -0.0000000310     1     5     4     1
 0.0334706243     1     5     4     2
 0.0000000009     1     5     4     3
 0.0000546083     1     5     4     4
 -0.0001689999     1     5     4    10
 -0.5396051806     1     5     5     1
 0.0000000037     1     5     5     2
 0.0208873920     1     5     5     3
 -0.0000000097     1     5     5     4
 0.0000000001     1     5     5    10
 0.0014068849     1     5     6     6
 -0.0000000002     1     5     6     8
 0.0014068849     1     5     7     7
 -0.0000000002     1     5     7     9
 -0.0000000003     1     5     8     6
 0.0000000001     1     5     8     7
 0.0011280037     1     5     8     8
 -0.0000000001     1     5     9     6
 -0.0000000003     1     5     9     7
 0.0011280037     1     5     9     9
 0.0000003039     1     5    10     1
 -0.3310341485     1     5    10     2
 -0.0000000082     1     5    10     3
 0.0182410909     1     5    10     4
 0.0034365899     1     5    10    10
 -0.0000196829     1     6     2     8
 -0.0000042699     1     6     2     9
 -0.0000000002     1     6     3     8
 -0.0000000001     1     6     3     9
 0.0001410244     1     6     4     8
 0.0000305931     1     6     4     9
 -0.0000000001     1     6     5     8
 -0.5442617096     1     6     6     1
 -0.0000000011     1     6     6     2
 0.0214467423     1     6     6     3
 -0.0000000097     1     6     6     4
 -0.0014068849     1     6     6     5
 -0.0000000003     1     6     6    10
 -0.0000000001     1     6     7     2
 -0.0000002991     1     6     8     1
 0.3277433806     1     6     8     2
 0.0000000080     1     6     8     3
 -0.0178988790     1     6     8     4
 0.0000000003     1     6     8     5
 -0.0022982708     1     6     8    10
 -0.0000000649     1     6     9     1
 0.0710989137     1     6     9     2
 0.0000000017     1     6     9     3
 -0.0038828881     1     6     9     4
 0.0000000001     1     6     9     5
 -0.0004985747     1     6     9    10
 -0.0000720174     1     6    10     8
 -0.0000156231     1     6    10     9
 0.0000042699     1     7     2     8
 -0.0000196829     1     7     2     9
 0.0000000001     1     7     3     8
 -0.0000000003     1     7     3     9
 -0.0000305931     1     7     4     8
 0.0001410244     1     7     4     9
 -0.0000000001     1     7     5     9
 -0.0000000001     1     7     6     2
 -0.5442617096     1     7     7     1
 -0.0000000014     1     7     7     2
 0.0214467423     1     7     7     3
 -0.0000000096     1     7     7     4
 -0.0014068849     1     7     7     5
 -0.0000000003     1     7     7    10
 0.0000000649     1     7     8     1
 -0.0710989137     1     7     8     2
 -0.0000000018     1     7     8     3
 0.0038828881     1     7     8     4
 -0.0000000001     1     7     8     5
 0.0004985747     1     7     8    10
 -0.0000002991     1     7     9     1
 0.3277433806     1     7     9     2
 0.0000000081     1     7     9     3
 -0.0178988790     1     7     9     4
 0.0000000003     1     7     9     5
 -0.0022982708     1     7     9    10
 0.0000156231     1     7    10     8
 -0.0000720174     1     7    10     9
 0.0000196829     1     8     2     6
 -0.0000042699     1     8     2     7
 0.0000000002     1     8     3     6
 -0.0000000001     1     8     3     7
 -0.0001410244     1     8     4     6
 0.0000305931     1     8     4     7
 0.0000000001     1     8     5     6
 -0.0000002991     1     8     6     1
 0.3277619037     1     8     6     2
 0.0000000087     1     8     6     3
 -0.0188617329     1     8     6     4
 0.0000000002     1     8     6     5
 -0.0023758555     1     8     6    10
 0.0000000649     1     8     7     1
 -0.0711029319     1     8     7     2
 -0.0000000018     1     8     7     3
 0.0040917645     1     8     7     4
 0.0005154055     1     8     7    10
 -0.5169194286     1     8     8     1
 -0.0000000008     1     8     8     2
 0.0175763167     1     8     8     3
 -0.0000000082     1     8     8     4
 -0.0011280037     1     8     8     5
 -0.0000000003     1     8     8    10
 0.0000720174     1     8    10     6
 -0.0000156231     1     8    10     7
 0.0000042699     1     9     2     6
 0.0000196829     1     9     2     7
 0.0000000001     1     9     3     6
 0.0000000003     1     9     3     7
 -0.0000305931     1     9     4     6
 -0.0001410244     1     9     4     7
 0.0000000001     1     9     5     7
 -0.0000000649     1     9     6     1
 0.0711029319     1     9     6     2
 0.0000000019     1     9     6     3
 -0.0040917645     1     9     6     4
 -0.0005154055     1     9     6    10
 -0.0000002991     1     9     7     1
 0.3277619037     1     9     7     2
 0.0000000086     1     9     7     3
 -0.0188617329     1     9     7     4
 0.0000000002     1     9     7     5
 -0.0023758555     1     9     7    10
 -0.5169194286     1     9     9     1
 -0.0000000004     1     9     9     2
 0.0175763167     1     9     9     3
 -0.0000000082     1     9     9     4
 -0.0011280037     1     9     9     5
 -0.0000000003     1     9     9    10
 0.0000156231     1     9    10     6
 0.0000720174     1     9    10     7
 -0.0017323594     1    10     2     1
 -0.0000000008     1    10     2     2
 -0.0000063042     1    10     2     3
 -0.0000411447     1    10     2     5
 0.0000000152     1    10     3     1
 -0.0164560866     1    10     3     2
 -0.0000000005     1    10     3     3
 -0.0008202359     1    10     3     4
 -0.0000000005     1    10     3     5
 -0.0184623939     1    10     4     1
 0.0000000001     1    10     4     2
 -0.0016791709     1    10     4     3
 0.0001689999     1    10     4     5
 0.0000003039     1    10     5     1
 -0.3310748851     1    10     5     2
 -0.0000000091     1    10     5     3
 0.0193065467     1    10     5     4
 -0.0000000001     1    10     5     5
 0.0000000003     1    10     6     6
 0.0023758555     1    10     6     8
 0.0005154055     1    10     6     9
 0.0000000003     1    10     7     7
 -0.0005154055     1    10     7     8
 0.0023758555     1    10     7     9
 0.0022982708     1    10     8     6
 -0.0004985747     1    10     8     7
 0.0000000003     1    10     8     8
 0.0004985747     1    10     9     6
 0.0022982708     1    10     9     7
 0.0000000003     1    10     9     9
 -0.5315797322     1    10    10     1
 0.0000000007     1    10    10     2
 0.0182188500     1    10    10     3
 -0.0000000087     1    10    10     4
 -0.0034365899     1    10    10     5
 -0.1706545550     2     1     1     2
 -0.0000000001     2     1     1     3
 0.0000631743     2     1     1     4
 -0.0000000009     2     1     1     5
 -0.0017323594     2     1     1    10
 -0.0000810943     2     1     3     2
 -0.0000000007     2     1     3     3
 0.3709458973     2     1     3     4
 -0.0000000001     2     1     3     5
 0.0164496143     2     1     3    10
 0.3709330866     2     1     4     3
 0.0000000007     2     1     4     4
 -0.0334752238     2     1     4     5
 -0.0000000001     2     1     4    10
 -0.0020349471     2     1     5     2
 -0.0000000001     2     1     5     3
 -0.0334706243     2     1     5     4
 -0.0000000037     2     1     5     5
 0.3310341485     2     1     5    10
 0.0000000011     2     1     6     6
 0.0000000001     2     1     6     7
 -0.3277433806     2     1     6     8
 -0.0710989137     2     1     6     9
 0.0000000001     2     1     7     6
 0.0000000014     2     1     7     7
 0.0710989137     2     1     7     8
 -0.3277433806     2     1     7     9
 -0.3277619037     2     1     8     6
 0.0711029319     2     1     8     7
 0.0000000008     2     1     8     8
 -0.0711029319     2     1     9     6
 -0.3277619037     2     1     9     7
 0.0000000004     2     1     9     9
 0.0000000008     2     1    10     2
 0.0164560866     2     1    10     3
 -0.0000000001     2     1    10     4
 0.3310748851     2     1    10     5
 -0.0000000007     2     1    10    10
 0.1706545550     2     2     1     1
 0.0000810943     2     2     1     3
 0.0020349471     2     2     1     5
 -0.0000000008     2     2     1    10
 0.0000810943     2     2     3     1
 0.5388314776     2     2     3     3
 0.0000003390     2     2     3     4
 0.0068232794     2     2     3     5
 0.0000000149     2     2     3    10
 0.0000003390     2     2     4     3
 0.5429077948     2     2     4     4
 -0.0000000302     2     2     4     5
 0.0184570165     2     2     4    10
 0.0020349471     2     2     5     1
 0.0068232794     2     2     5     3
 -0.0000000302     2     2     5     4
 0.5396514251     2     2     5     5
 0.0000003014     2     2     5    10
 0.5442859509     2     2     6     6
 -0.0000003002     2     2     6     8
 -0.0000000651     2     2     6     9
 0.5442859509     2     2     7     7
 0.0000000651     2     2     7     8
 -0.0000003002     2     2     7     9
 -0.0000003002     2     2     8     6
 0.0000000651     2     2     8     7
 0.5169030760     2     2     8     8
 -0.0000000651     2     2     9     6
 -0.0000003002     2     2     9     7
 0.5169030760     2     2     9     9
 -0.0000000008     2     2    10     1
 0.0000000149     2     2    10     3
 0.0184570165     2     2    10     4
 0.0000003014     2     2    10     5
 0.5315413092     2     2    10    10
 0.0000000001     2     3     1     1
 -0.0000810943     2     3     1     2
 0.0000127263     2     3     1     4
 -0.0000063042     2     3     1    10
 0.0000000007     2     3     3     1
 -0.5388314776     2     3     3     2
 0.0001414548     2     3     3     4
 -0.0000000004     2     3     3     5
 -0.0010760744     2     3     3    10
 -0.3709330866     2     3     4     1
 -0.0000003390     2     3     4     2
 -0.0000000002     2     3     4     4
 0.0018481370     2     3     4     5
 0.0000000008     2     3     4    10
 0.0000000001     2     3     5     1
 -0.0068232794     2     3     5     2
 0.0008302088     2     3     5     4
 -0.0000000092     2     3     5     5
 -0.0196500858     2     3     5    10
 -0.0000000099     2     3     6     6
 0.0189642070     2     3     6     8
 0.0041139947     2     3     6     9
 -0.0000000099     2     3     7     7
 -0.0041139947     2     3     7     8
 0.0189642070     2     3     7     9
 0.0176494694     2     3     8     6
 -0.0038287824     2     3     8     7
 -0.0000000081     2     3     8     8
 0.0038287824     2     3     9     6
 0.0176494694     2     3     9     7
 -0.0000000081     2     3     9     9
 -0.0164560866     2     3    10     1
 -0.0000000149     2     3    10     2
 0.0000000003     2     3    10     4
 -0.0177891106     2     3    10     5
 -0.0000000083     2     3    10    10
 -0.0000631743     2     4     1     1
 -0.0000127263     2     4     1     3
 -0.0000044063     2     4     1     5
 -0.3709458973     2     4     3     1
 -0.0000003390     2     4     3     2
 -0.0001414548     2     4     3     3
 0.0010160702     2     4     3     5
 0.0000000003     2     4     3    10
 -0.0000000007     2     4     4     1
 -0.5429077948     2     4     4     2
 0.0000000002     2     4     4     3
 -0.0000000001     2     4     4     5
 -0.0000036767     2     4     4    10
 0.0334706243     2     4     5     1
 0.0000000302     2     4     5     2
 -0.0008302088     2     4     5     3
 -0.0206091123     2     4     5     5
 -0.0000000087     2     4     5    10
 -0.0214832515     2     4     6     6
 0.0000000087     2     4     6     8
 0.0000000018     2     4     6     9
 -0.0214832515     2     4     7     7
 -0.0000000018     2     4     7     8
 0.0000000087     2     4     7     9
 0.0000000082     2     4     8     6
 -0.0000000018     2     4     8     7
 -0.0179700135     2     4     8     8
 0.0000000018     2     4     9     6
 0.0000000082     2     4     9     7
 -0.0179700135     2     4     9     9
 0.0000000001     2     4    10     1
 -0.0184570165     2     4    10     2
 -0.0000000003     2     4    10     3
 -0.0000000083     2     4    10     5
 -0.0188851630     2     4    10    10
 0.0000000009     2     5     1     1
 -0.0020349471     2     5     1     2
 0.0000044063     2     5     1     4
 -0.0000411447     2     5     1    10
 0.0000000001     2     5     3     1
 -0.0068232794     2     5     3     2
 0.0000000004     2     5     3     3
 -0.0010160702     2     5     3     4
 -0.0010560563     2     5     3    10
 0.0334752238     2     5     4     1
 0.0000000302     2     5     4     2
 -0.0018481370     2     5     4     3
 0.0000000001     2     5     4     4
 -0.0000000001     2     5     4    10
 0.0000000037     2     5     5     1
 -0.5396514251     2     5     5     2
 0.0000000092     2     5     5     3
 0.0206091123     2     5     5     4
 -0.0002135851     2     5     5    10
 0.0000000007     2     5     6     6
 0.0004664698     2     5     6     8
 0.0001011935     2     5     6     9
 0.0000000007     2     5     7     7
 -0.0001011935     2     5     7     8
 0.0004664698     2     5     7     9
 0.0007947848     2     5     8     6
 -0.0001724165     2     5     8     7
 0.0000000005     2     5     8     8
 0.0001724165     2     5     9     6
 0.0007947848     2     5     9     7
 0.0000000005     2     5     9     9
 -0.3310748851     2     5    10     1
 -0.0000003014     2     5    10     2
 0.0177891106     2     5    10     3
 0.0000000083     2     5    10     4
 0.0000000015     2     5    10    10
 0.0000196829     2     6     1     8
 0.0000042699     2     6     1     9
 0.0005397192     2     6     3     8
 0.0001170839     2     6     3     9
 0.0000000001     2     6     4     8
 -0.0000045691     2     6     5     8
 -0.0000009912     2     6     5     9
 -0.0000000011     2     6     6     1
 -0.5442859509     2     6     6     2
 0.0000000099     2     6     6     3
 0.0214832515     2     6     6     4
 -0.0000000007     2     6     6     5
 0.0006114481     2     6     6    10
 -0.0000000001     2     6     7     1
 0.3277619037     2     6     8     1
 0.0000003002     2     6     8     2
 -0.0176494694     2     6     8     3
 -0.0000000082     2     6     8     4
 -0.0007947848     2     6     8     5
 -0.0000000010     2     6     8    10
 0.0711029319     2     6     9     1
 0.0000000651     2     6     9     2
 -0.0038287824     2     6     9     3
 -0.0000000018     2     6     9     4
 -0.0001724165     2     6     9     5
 -0.0000000002     2     6     9    10
 0.0000000001     2     6    10     8
 -0.0000042699     2     7     1     8
 0.0000196829     2     7     1     9
 -0.0001170839     2     7     3     8
 0.0005397192     2     7     3     9
 0.0000000001     2     7     4     9
 0.0000009912     2     7     5     8
 -0.0000045691     2     7     5     9
 -0.0000000001     2     7     6     1
 -0.0000000014     2     7     7     1
 -0.5442859509     2     7     7     2
 0.0000000099     2     7     7     3
 0.0214832515     2     7     7     4
 -0.0000000007     2     7     7     5
 0.0006114481     2     7     7    10
 -0.0711029319     2     7     8     1
 -0.0000000651     2     7     8     2
 0.0038287824     2     7     8     3
 0.0000000018     2     7     8     4
 0.0001724165     2     7     8     5
 0.0000000002     2     7     8    10
 0.3277619037     2     7     9     1
 0.0000003002     2     7     9     2
 -0.0176494694     2     7     9     3
 -0.0000000082     2     7     9     4
 -0.0007947848     2     7     9     5
 -0.0000000010     2     7     9    10
 0.0000000001     2     7    10     9
 -0.0000196829     2     8     1     6
 0.0000042699     2     8     1     7
 -0.0005397192     2     8     3     6
 0.0001170839     2     8     3     7
 -0.0000000001     2     8     4     6
 0.0000045691     2     8     5     6
 -0.0000009912     2     8     5     7
 0.3277433806     2     8     6     1
 0.0000003002     2     8     6     2
 -0.0189642070     2     8     6     3
 -0.0000000087     2     8     6     4
 -0.0004664698     2     8     6     5
 -0.0000000011     2     8     6    10
 -0.0710989137     2     8     7     1
 -0.0000000651     2     8     7     2
 0.0041139947     2     8     7     3
 0.0000000018     2     8     7     4
 0.0001011935     2     8     7     5
 0.0000000002     2     8     7    10
 -0.0000000008     2     8     8     1
 -0.5169030760     2     8     8     2
 0.0000000081     2     8     8     3
 0.0179700135     2     8     8     4
 -0.0000000005     2     8     8     5
 0.0006950891     2     8     8    10
 -0.0000000001     2     8    10     6
 -0.0000042699     2     9     1     6
 -0.0000196829     2     9     1     7
 -0.0001170839     2     9     3     6
 -0.0005397192     2     9     3     7
 -0.0000000001     2     9     4     7
 0.0000009912     2     9     5     6
 0.0000045691     2     9     5     7
 0.0710989137     2     9     6     1
 0.0000000651     2     9     6     2
 -0.0041139947     2     9     6     3
 -0.0000000018     2     9     6     4
 -0.0001011935     2     9     6     5
 -0.0000000002     2     9     6    10
 0.3277433806     2     9     7     1
 0.0000003002     2     9     7     2
 -0.0189642070     2     9     7     3
 -0.0000000087     2     9     7     4
 -0.0004664698     2     9     7     5
 -0.0000000011     2     9     7    10
 -0.0000000004     2     9     9     1
 -0.5169030760     2     9     9     2
 0.0000000081     2     9     9     3
 0.0179700135     2     9     9     4
 -0.0000000005     2     9     9     5
 0.0006950891     2     9     9    10
 -0.0000000001     2     9    10     7
 0.0017323594     2    10     1     1
 0.0000000008     2    10     1     2
 0.0000063042     2    10     1     3
 0.0000411447     2    10     1     5
 -0.0164496143     2    10     3     1
 -0.0000000149     2    10     3     2
 0.0010760744     2    10     3     3
 -0.0000000003     2    10     3     4
 0.0010560563     2    10     3     5
 0.0000000001     2    10     4     1
 -0.0184570165     2    10     4     2
 -0.0000000008     2    10     4     3
 0.0000036767     2    10     4     4
 0.0000000001     2    10     4     5
 -0.3310341485     2    10     5     1
 -0.0000003014     2    10     5     2
 0.0196500858     2    10     5     3
 0.0000000087     2    10     5     4
 0.0002135851     2    10     5     5
 -0.0006114481     2    10     6     6
 0.0000000011     2    10     6     8
 0.0000000002     2    10     6     9
 -0.0006114481     2    10     7     7
 -0.0000000002     2    10     7     8
 0.0000000011     2    10     7     9
 0.0000000010     2    10     8     6
 -0.0000000002     2    10     8     7
 -0.0006950891     2    10     8     8
 0.0000000002     2    10     9     6
 0.0000000010     2    10     9     7
 -0.0006950891     2    10     9     9
 0.0000000007     2    10    10     1
 -0.5315413092     2    10    10     2
 0.0000000083     2    10    10     3
 0.0188851630     2    10    10     4
 -0.0000000015     2    10    10     5
 -0.0000000001     3     1     1     2
 -0.5388446367     3     1     1     3
 0.0000003391     3     1     1     4
 -0.0068264298     3     1     1     5
 0.0000000152     3     1     1    10
 0.0000810943     3     1     2     2
 0.0000000007     3     1     2     3
 -0.3709458973     3     1     2     4
 0.0000000001     3     1     2     5
 -0.0164496143     3     1     2    10
 -0.0000127263     3     1     4     2
 -0.0000000001     3     1     4     3
 -0.0002533375     3     1     4     4
 -0.0000000004     3     1     4     5
 0.0008419950     3     1     4    10
 -0.0010564111     3     1     5     3
 -0.0000000009     3     1     5     4
 -0.0208873920     3     1     5     5
 0.0000000082     3     1     5    10
 -0.0214467423     3     1     6     6
 -0.0000000080     3     1     6     8
 -0.0000000017     3     1     6     9
 -0.0214467423     3     1     7     7
 0.0000000018     3     1     7     8
 -0.0000000081     3     1     7     9
 -0.0000000087     3     1     8     6
 0.0000000018     3     1     8     7
 -0.0175763167     3     1     8     8
 -0.0000000019     3     1     9     6
 -0.0000000086     3     1     9     7
 -0.0175763167     3     1     9     9
 0.0000063042     3     1    10     2
 0.0000000005     3     1    10     3
 0.0016791709     3     1    10     4
 0.0000000091     3     1    10     5
 -0.0182188500     3     1    10    10
 0.0000000001     3     2     1     1
 0.0000000007     3     2     1     3
 -0.3709330866     3     2     1     4
 0.0000000001     3     2     1     5
 -0.0164560866     3     2     1    10
 -0.0000810943     3     2     2     1
 -0.5388314776     3     2     2     3
 -0.0000003390     3     2     2     4
 -0.0068232794     3     2     2     5
 -0.0000000149     3     2     2    10
 0.0000127263     3     2     4     1
 0.0001414548     3     2     4     3
 -0.0000000002     3     2     4     4
 0.0008302088     3     2     4     5
 0.0000000003     3     2     4    10
 -0.0000000004     3     2     5     3
 0.0018481370     3     2     5     4
 -0.0000000092     3     2     5     5
 -0.0177891106     3     2     5    10
 -0.0000000099     3     2     6     6
 0.0176494694     3     2     6     8
 0.0038287824     3     2     6     9
 -0.0000000099     3     2     7     7
 -0.0038287824     3     2     7     8
 0.0176494694     3     2     7     9
 0.0189642070     3     2     8     6
 -0.0041139947     3     2     8     7
 -0.0000000081     3     2     8     8
 0.0041139947     3     2     9     6
 0.0189642070     3     2     9     7
 -0.0000000081     3     2     9     9
 -0.0000063042     3     2    10     1
 -0.0010760744     3     2    10     3
 0.0000000008     3     2    10     4
 -0.0196500858     3     2    10     5
 -0.0000000083     3     2    10    10
 0.5388446367     3     3     1     1
 -0.0000000007     3     3     1     2
 0.0000000001     3     3     1     4
 0.0010564111     3     3     1     5
 -0.0000000005     3     3     1    10
 -0.0000000007     3     3     2     1
 0.5388314776     3     3     2     2
 -0.0001414548     3     3     2     4
 0.0000000004     3     3     2     5
 0.0010760744     3     3     2    10
 0.0000000001     3     3     4     1
 -0.0001414548     3     3     4     2
 0.1676724453     3     3     4     4
 0.0000000002     3     3     4     5
 0.0107495491     3     3     4    10
 0.0010564111     3     3     5     1
 0.0000000004     3     3     5     2
 0.0000000002     3     3     5     4
 0.3465296412     3     3     5     5
 -0.0000000009     3     3     5    10
 0.3480356100     3     3     6     6
 0.3480356100     3     3     7     7
 0.3459427118     3     3     8     8
 0.3459427118     3     3     9     9
 -0.0000000005     3     3    10     1
 0.0010760744     3     3    10     2
 0.0107495491     3     3    10     4
 -0.0000000009     3     3    10     5
 0.3549922833     3     3    10    10
 -0.0000003391     3     4     1     1
 0.3709330866     3     4     1     2
 -0.0000000001     3     4     1     3
 0.0000000004     3     4     1     5
 -0.0008202359     3     4     1    10
 0.3709458973     3     4     2     1
 0.0000003390     3     4     2     2
 0.0001414548     3     4     2     3
 -0.0010160702     3     4     2     5
 -0.0000000003     3     4     2    10
 0.0002533375     3     4     4     1
 0.0000000002     3     4     4     2
 -0.1676724453     3     4     4     3
 -0.0312476779     3     4     4     5
 0.0000000001     3     4     4    10
 0.0000000009     3     4     5     1
 -0.0018481370     3     4     5     2
 -0.0000000002     3     4     5     3
 -0.0000000014     3     4     5     5
 0.1667556079     3     4     5    10
 0.0000000003     3     4     6     6
 -0.1639853283     3     4     6     8
 -0.0355741089     3     4     6     9
 0.0000000004     3     4     7     7
 0.0355741089     3     4     7     8
 -0.1639853283     3     4     7     9
 -0.1617009546     3     4     8     6
 0.0350785489     3     4     8     7
 0.0000000003     3     4     8     8
 -0.0350785489     3     4     9     6
 -0.1617009546     3     4     9     7
 0.0000000001     3     4     9     9