&FCI NORB= 10,NELEC= 14,MS2=0,
 ORBSYM=1,1,1,1,1,1,1,1,1,1
 ISYM=1,
&END
 0.1763460679     1     1     2     2
 0.0000000001     1     1     2     3
 -0.0000788546     1     1     2     4
 -0.0000000037     1     1     2     5
 0.0018563179     1     1     2    10
 0.0000000001     1     1     3     2
 0.5414591533     1     1     3     3
 -0.0000012348     1     1     3     4
 -0.0069859255     1     1     3     5
 -0.0000000625     1     1     3    10
 -0.0000788546     1     1     4     2
 -0.0000012348     1     1     4     3
 0.5460491824     1     1     4     4
 -0.0000001246     1     1     4     5
 0.0200757069     1     1     4    10
 -0.0000000037     1     1     5     2
 -0.0069859255     1     1     5     3
 -0.0000001246     1     1     5     4
 0.5416010306     1     1     5     5
 0.0000010987     1     1     5    10
 0.5467214713     1     1     6     6
 -0.0000000002     1     1     6     7
 -0.0000006555     1     1     6     8
 0.0000009032     1     1     6     9
 -0.0000000002     1     1     7     6
 0.5467214711     1     1     7     7
 0.0000009032     1     1     7     8
 0.0000006554     1     1     7     9
 -0.0000006555     1     1     8     6
 0.0000009032     1     1     8     7
 0.5200862443     1     1     8     8
 0.0000009032     1     1     9     6
 0.0000006554     1     1     9     7
 0.5200862443     1     1     9     9
 0.0018563179     1     1    10     2
 -0.0000000625     1     1    10     3
 0.0200757069     1     1    10     4
 0.0000010987     1     1    10     5
 0.5360723004     1     1    10    10
 -0.1763460679     1     2     2     1
 -0.0000883720     1     2     2     3
 -0.0000000002     1     2     2     4
 0.0021663841     1     2     2     5
 0.0000000031     1     2     2    10
 -0.0000000001     1     2     3     1
 -0.0000000027     1     2     3     3
 0.3681020869     1     2     3     4
 -0.0000000002     1     2     3     5
 0.0185730550     1     2     3    10
 0.0000788546     1     2     4     1
 0.3681147902     1     2     4     3
 0.0000000024     1     2     4     4
 0.0369769104     1     2     4     5
 0.0000000037     1     2     5     1
 -0.0000000002     1     2     5     3
 0.0369821256     1     2     5     4
 -0.0000000041     1     2     5     5
 -0.3272126716     1     2     5    10
 0.0000000003     1     2     6     6
 0.0000000001     1     2     6     7
 0.1954304281     1     2     6     8
 -0.2693063689     1     2     6     9
 0.0000000001     1     2     7     6
 0.0000000005     1     2     7     7
 -0.2693063689     1     2     7     8
 -0.1954304279     1     2     7     9
 0.1954181162     1     2     8     6
 -0.2692894029     1     2     8     7
 0.0000000009     1     2     8     8
 -0.2692894029     1     2     9     6
 -0.1954181160     1     2     9     7
 0.0000000008     1     2     9     9
 -0.0018563179     1     2    10     1
 0.0185659832     1     2    10     3
 -0.3271676631     1     2    10     5
 -0.0000000004     1     2    10    10
 -0.0000000001     1     3     2     1
 0.0000883720     1     3     2     2
 -0.0000126314     1     3     2     4
 0.0000068817     1     3     2    10
 -0.5414591533     1     3     3     1
 0.0000000027     1     3     3     2
 -0.0000000003     1     3     3     4
 0.0011577515     1     3     3     5
 0.0000000019     1     3     3    10
 0.0000012348     1     3     4     1
 -0.3681147902     1     3     4     2
 -0.0002679180     1     3     4     4
 0.0000000034     1     3     4     5
 0.0018175510     1     3     4    10
 0.0069859255     1     3     5     1
 0.0000000002     1     3     5     2
 0.0000000016     1     3     5     4
 -0.0207915720     1     3     5     5
 -0.0000000331     1     3     5    10
 -0.0214135465     1     3     6     6
 0.0000000191     1     3     6     8
 -0.0000000264     1     3     6     9
 -0.0214135465     1     3     7     7
 -0.0000000264     1     3     7     8
 -0.0000000192     1     3     7     9
 0.0000000178     1     3     8     6
 -0.0000000245     1     3     8     7
 -0.0176018602     1     3     8     8
 -0.0000000245     1     3     9     6
 -0.0000000178     1     3     9     7
 -0.0176018602     1     3     9     9
 0.0000000625     1     3    10     1
 -0.0185659832     1     3    10     2
 0.0009252475     1     3    10     4
 -0.0000000298     1     3    10     5
 -0.0183011894     1     3    10    10
 0.0000788546     1     4     2     1
 0.0000000002     1     4     2     2
 0.0000126314     1     4     2     3
 -0.0000049891     1     4     2     5
 0.0000012348     1     4     3     1
 -0.3681020869     1     4     3     2
 0.0000000003     1     4     3     3
 0.0000000018     1     4     3     5
 0.0008701346     1     4     3    10
 -0.5460491824     1     4     4     1
 -0.0000000024     1     4     4     2
 0.0002679180     1     4     4     3
 0.0000184760     1     4     4     5
 0.0000001246     1     4     5     1
 -0.0369821256     1     4     5     2
 -0.0000000016     1     4     5     3
 0.0000000347     1     4     5     5
 0.0192815662     1     4     5    10
 0.0000000358     1     4     6     6
 -0.0113300993     1     4     6     8
 0.0156130645     1     4     6     9
 0.0000000359     1     4     7     7
 0.0156130645     1     4     7     8
 0.0113300993     1     4     7     9
 -0.0107540552     1     4     8     6
 0.0148192662     1     4     8     7
 0.0000000302     1     4     8     8
 0.0148192662     1     4     9     6
 0.0107540552     1     4     9     7
 0.0000000302     1     4     9     9
 -0.0200757069     1     4    10     1
 -0.0009252475     1     4    10     3
 0.0181766070     1     4    10     5
 0.0000000320     1     4    10    10
 0.0000000037     1     5     2     1
 -0.0021663841     1     5     2     2
 0.0000049891     1     5     2     4
 -0.0000454147     1     5     2    10
 0.0069859255     1     5     3     1
 0.0000000002     1     5     3     2
 -0.0011577515     1     5     3     3
 -0.0000000018     1     5     3     4
 -0.0000000019     1     5     3    10
 0.0000001246     1     5     4     1
 -0.0369769104     1     5     4     2
 -0.0000000034     1     5     4     3
 -0.0000184760     1     5     4     4
 0.0001806019     1     5     4    10
 -0.5416010306     1     5     5     1
 0.0000000041     1     5     5     2
 0.0207915720     1     5     5     3
 -0.0000000347     1     5     5     4
 0.0000000002     1     5     5    10
 -0.0015559434     1     5     6     6
 -0.0000000004     1     5     6     8
 0.0000000006     1     5     6     9
 -0.0015559434     1     5     7     7
 0.0000000006     1     5     7     8
 0.0000000004     1     5     7     9
 -0.0000000008     1     5     8     6
 0.0000000010     1     5     8     7
 -0.0012453824     1     5     8     8
 0.0000000010     1     5     9     6
 0.0000000008     1     5     9     7
 -0.0012453824     1     5     9     9
 -0.0000010987     1     5    10     1
 0.3271676631     1     5    10     2
 0.0000000298     1     5    10     3
 -0.0181766070     1     5    10     4
 -0.0037564527     1     5    10    10
 0.0000130310     1     6     2     8
 -0.0000179569     1     6     2     9
 0.0000000005     1     6     3     8
 -0.0000000008     1     6     3     9
 -0.0000752046     1     6     4     8
 0.0001036332     1     6     4     9
 -0.5467214713     1     6     6     1
 -0.0000000003     1     6     6     2
 0.0214135465     1     6     6     3
 -0.0000000358     1     6     6     4
 0.0015559434     1     6     6     5
 -0.0000000012     1     6     6    10
 0.0000000002     1     6     7     1
 -0.0000000001     1     6     7     2
 0.0000006555     1     6     8     1
 -0.1954181162     1     6     8     2
 -0.0000000178     1     6     8     3
 0.0107540552     1     6     8     4
 0.0000000008     1     6     8     5
 0.0015109859     1     6     8    10
 -0.0000009032     1     6     9     1
 0.2692894029     1     6     9     2
 0.0000000245     1     6     9     3
 -0.0148192662     1     6     9     4
 -0.0000000010     1     6     9     5
 -0.0020821636     1     6     9    10
 0.0000473673     1     6    10     8
 -0.0000652730     1     6    10     9
 -0.0000179569     1     7     2     8
 -0.0000130310     1     7     2     9
 -0.0000000008     1     7     3     8
 -0.0000000006     1     7     3     9
 0.0001036332     1     7     4     8
 0.0000752046     1     7     4     9
 0.0000000001     1     7     5     9
 0.0000000002     1     7     6     1
 -0.0000000001     1     7     6     2
 -0.5467214711     1     7     7     1
 -0.0000000005     1     7     7     2
 0.0214135465     1     7     7     3
 -0.0000000359     1     7     7     4
 0.0015559434     1     7     7     5
 -0.0000000012     1     7     7    10
 -0.0000009032     1     7     8     1
 0.2692894029     1     7     8     2
 0.0000000245     1     7     8     3
 -0.0148192662     1     7     8     4
 -0.0000000010     1     7     8     5
 -0.0020821636     1     7     8    10
 -0.0000006554     1     7     9     1
 0.1954181160     1     7     9     2
 0.0000000178     1     7     9     3
 -0.0107540552     1     7     9     4
 -0.0000000008     1     7     9     5
 -0.0015109859     1     7     9    10
 -0.0000652730     1     7    10     8
 -0.0000473673     1     7    10     9
 -0.0000130310     1     8     2     6
 0.0000179569     1     8     2     7
 -0.0000000005     1     8     3     6
 0.0000000008     1     8     3     7
 0.0000752046     1     8     4     6
 -0.0001036332     1     8     4     7
 0.0000006555     1     8     6     1
 -0.1954304281     1     8     6     2
 -0.0000000191     1     8     6     3
 0.0113300993     1     8     6     4
 0.0000000004     1     8     6     5
 0.0015656636     1     8     6    10
 -0.0000009032     1     8     7     1
 0.2693063689     1     8     7     2
 0.0000000264     1     8     7     3
 -0.0156130645     1     8     7     4
 -0.0000000006     1     8     7     5
 -0.0021575104     1     8     7    10
 -0.5200862443     1     8     8     1
 -0.0000000009     1     8     8     2
 0.0176018602     1     8     8     3
 -0.0000000302     1     8     8     4
 0.0012453824     1     8     8     5
 -0.0000000014     1     8     8    10
 -0.0000473673     1     8    10     6
 0.0000652730     1     8    10     7
 0.0000179569     1     9     2     6
 0.0000130310     1     9     2     7
 0.0000000008     1     9     3     6
 0.0000000006     1     9     3     7
 -0.0001036332     1     9     4     6
 -0.0000752046     1     9     4     7
 -0.0000000001     1     9     5     7
 -0.0000009032     1     9     6     1
 0.2693063689     1     9     6     2
 0.0000000264     1     9     6     3
 -0.0156130645     1     9     6     4
 -0.0000000006     1     9     6     5
 -0.0021575104     1     9     6    10
 -0.0000006554     1     9     7     1
 0.1954304279     1     9     7     2
 0.0000000192     1     9     7     3
 -0.0113300993     1     9     7     4
 -0.0000000004     1     9     7     5
 -0.0015656636     1     9     7    10
 -0.5200862443     1     9     9     1
 -0.0000000008     1     9     9     2
 0.0176018602     1     9     9     3
 -0.0000000302     1     9     9     4
 0.0012453824     1     9     9     5
 -0.0000000014     1     9     9    10
 0.0000652730     1     9    10     6
 0.0000473673     1     9    10     7
 -0.0018563179     1    10     2     1
 -0.0000000031     1    10     2     2
 -0.0000068817     1    10     2     3
 0.0000454147     1    10     2     5
 0.0000000625     1    10     3     1
 -0.0185730550     1    10     3     2
 -0.0000000019     1    10     3     3
 -0.0008701346     1    10     3     4
 0.0000000019     1    10     3     5
 -0.0200757069     1    10     4     1
 -0.0018175510     1    10     4     3
 -0.0001806019     1    10     4     5
 -0.0000010987     1    10     5     1
 0.3272126716     1    10     5     2
 0.0000000331     1    10     5     3
 -0.0192815662     1    10     5     4
 -0.0000000002     1    10     5     5
 0.0000000012     1    10     6     6
 -0.0015656636     1    10     6     8
 0.0021575104     1    10     6     9
 0.0000000012     1    10     7     7
 0.0021575104     1    10     7     8
 0.0015656636     1    10     7     9
 -0.0015109859     1    10     8     6
 0.0020821636     1    10     8     7
 0.0000000014     1    10     8     8
 0.0020821636     1    10     9     6
 0.0015109859     1    10     9     7
 0.0000000014     1    10     9     9
 -0.5360723004     1    10    10     1
 0.0000000004     1    10    10     2
 0.0183011894     1    10    10     3
 -0.0000000320     1    10    10     4
 0.0037564527     1    10    10     5
 -0.1763460679     2     1     1     2
 -0.0000000001     2     1     1     3
 0.0000788546     2     1     1     4
 0.0000000037     2     1     1     5
 -0.0018563179     2     1     1    10
 -0.0000883720     2     1     3     2
 -0.0000000027     2     1     3     3
 0.3681147902     2     1     3     4
 -0.0000000002     2     1     3     5
 0.0185659832     2     1     3    10
 -0.0000000002     2     1     4     2
 0.3681020869     2     1     4     3
 0.0000000024     2     1     4     4
 0.0369821256     2     1     4     5
 0.0021663841     2     1     5     2
 -0.0000000002     2     1     5     3
 0.0369769104     2     1     5     4
 -0.0000000041     2     1     5     5
 -0.3271676631     2     1     5    10
 0.0000000003     2     1     6     6
 0.0000000001     2     1     6     7
 0.1954181162     2     1     6     8
 -0.2692894029     2     1     6     9
 0.0000000001     2     1     7     6
 0.0000000005     2     1     7     7
 -0.2692894029     2     1     7     8
 -0.1954181160     2     1     7     9
 0.1954304281     2     1     8     6
 -0.2693063689     2     1     8     7
 0.0000000009     2     1     8     8
 -0.2693063689     2     1     9     6
 -0.1954304279     2     1     9     7
 0.0000000008     2     1     9     9
 0.0000000031     2     1    10     2
 0.0185730550     2     1    10     3
 -0.3272126716     2     1    10     5
 -0.0000000004     2     1    10    10
 0.1763460679     2     2     1     1
 0.0000883720     2     2     1     3
 0.0000000002     2     2     1     4
 -0.0021663841     2     2     1     5
 -0.0000000031     2     2     1    10
 0.0000883720     2     2     3     1
 0.5414460346     2     2     3     3
 0.0000012345     2     2     3     4
 -0.0069825794     2     2     3     5
 0.0000000621     2     2     3    10
 0.0000000002     2     2     4     1
 0.0000012345     2     2     4     3
 0.5460615342     2     2     4     4
 0.0000001235     2     2     4     5
 0.0200700795     2     2     4    10
 -0.0021663841     2     2     5     1
 -0.0069825794     2     2     5     3
 0.0000001235     2     2     5     4
 0.5416518003     2     2     5     5
 -0.0000010961     2     2     5    10
 0.5467482254     2     2     6     6
 -0.0000000002     2     2     6     7
 0.0000006555     2     2     6     8
 -0.0000009033     2     2     6     9
 -0.0000000002     2     2     7     6
 0.5467482251     2     2     7     7
 -0.0000009033     2     2     7     8
 -0.0000006555     2     2     7     9
 0.0000006555     2     2     8     6
 -0.0000009033     2     2     8     7
 0.5200682986     2     2     8     8
 -0.0000009033     2     2     9     6
 -0.0000006555     2     2     9     7
 0.5200682986     2     2     9     9
 -0.0000000031     2     2    10     1
 0.0000000621     2     2    10     3
 0.0200700795     2     2    10     4
 -0.0000010961     2     2    10     5
 0.5360296029     2     2    10    10
 0.0000000001     2     3     1     1
 -0.0000883720     2     3     1     2
 0.0000126314     2     3     1     4
 -0.0000068817     2     3     1    10
 0.0000000027     2     3     3     1
 -0.5414460346     2     3     3     2
 0.0001421071     2     3     3     4
 0.0000000020     2     3     3     5
 -0.0011768094     2     3     3    10
 -0.3681020869     2     3     4     1
 -0.0000012345     2     3     4     2
 -0.0000000004     2     3     4     4
 -0.0019912595     2     3     4     5
 0.0000000030     2     3     4    10
 0.0000000002     2     3     5     1
 0.0069825794     2     3     5     2
 -0.0009327893     2     3     5     4
 -0.0000000345     2     3     5     5
 0.0196506193     2     3     5    10
 -0.0000000359     2     3     6     6
 -0.0113940166     2     3     6     8
 0.0157011437     2     3     6     9
 -0.0000000360     2     3     7     7
 0.0157011437     2     3     7     8
 0.0113940166     2     3     7     9
 -0.0105858123     2     3     8     6
 0.0145874249     2     3     8     7
 -0.0000000294     2     3     8     8
 0.0145874249     2     3     9     6
 0.0105858123     2     3     9     7
 -0.0000000294     2     3     9     9
 -0.0185730550     2     3    10     1
 -0.0000000621     2     3    10     2
 0.0000000015     2     3    10     4
 0.0176830209     2     3    10     5
 -0.0000000306     2     3    10    10
 -0.0000788546     2     4     1     1
 -0.0000000002     2     4     1     2
 -0.0000126314     2     4     1     3
 0.0000049891     2     4     1     5
 -0.3681147902     2     4     3     1
 -0.0000012345     2     4     3     2
 -0.0001421071     2     4     3     3
 -0.0010553116     2     4     3     5
 0.0000000015     2     4     3    10
 -0.0000000024     2     4     4     1
 -0.5460615342     2     4     4     2
 0.0000000004     2     4     4     3
 0.0000300513     2     4     4    10
 -0.0369769104     2     4     5     1
 -0.0000001235     2     4     5     2
 0.0009327893     2     4     5     3
 -0.0204957607     2     4     5     5
 0.0000000323     2     4     5    10
 -0.0214696059     2     4     6     6
 -0.0000000191     2     4     6     8
 0.0000000263     2     4     6     9
 -0.0214696058     2     4     7     7
 0.0000000263     2     4     7     8
 0.0000000190     2     4     7     9
 -0.0000000180     2     4     8     6
 0.0000000249     2     4     8     7
 -0.0180479775     2     4     8     8
 0.0000000249     2     4     9     6
 0.0000000180     2     4     9     7
 -0.0180479775     2     4     9     9
 -0.0200700795     2     4    10     2
 -0.0000000015     2     4    10     3
 0.0000000304     2     4    10     5
 -0.0190535906     2     4    10    10
 -0.0000000037     2     5     1     1
 0.0021663841     2     5     1     2
 -0.0000049891     2     5     1     4
 0.0000454147     2     5     1    10
 0.0000000002     2     5     3     1
 0.0069825794     2     5     3     2
 -0.0000000020     2     5     3     3
 0.0010553116     2     5     3     4
 0.0011456547     2     5     3    10
 -0.0369821256     2     5     4     1
 -0.0000001235     2     5     4     2
 0.0019912595     2     5     4     3
 0.0000000003     2     5     4    10
 0.0000000041     2     5     5     1
 -0.5416518003     2     5     5     2
 0.0000000345     2     5     5     3
 0.0204957607     2     5     5     4
 -0.0001560975     2     5     5    10
 -0.0000000026     2     5     6     6
 0.0002718918     2     5     6     8
 -0.0003746715     2     5     6     9
 -0.0000000026     2     5     7     7
 -0.0003746715     2     5     7     8
 -0.0002718918     2     5     7     9
 0.0004697437     2     5     8     6
 -0.0006473145     2     5     8     7
 -0.0000000021     2     5     8     8
 -0.0006473145     2     5     9     6
 -0.0004697436     2     5     9     7
 -0.0000000021     2     5     9     9
 0.3272126716     2     5    10     1
 0.0000010961     2     5    10     2
 -0.0176830209     2     5    10     3
 -0.0000000304     2     5    10     4
 -0.0000000063     2     5    10    10
 -0.0000130310     2     6     1     8
 0.0000179569     2     6     1     9
 -0.0003388305     2     6     3     8
 0.0004669139     2     6     3     9
 -0.0000000001     2     6     4     8
 0.0000000002     2     6     4     9
 0.0000052069     2     6     5     8
 -0.0000071751     2     6     5     9
 -0.0000000003     2     6     6     1
 -0.5467482254     2     6     6     2
 0.0000000359     2     6     6     3
 0.0214696059     2     6     6     4
 0.0000000026     2     6     6     5
 0.0007118401     2     6     6    10
 -0.0000000001     2     6     7     1
 0.0000000002     2     6     7     2
 -0.1954304281     2     6     8     1
 -0.0000006555     2     6     8     2
 0.0105858123     2     6     8     3
 0.0000000180     2     6     8     4
 -0.0004697437     2     6     8     5
 0.0000000025     2     6     8    10
 0.2693063689     2     6     9     1
 0.0000009033     2     6     9     2
 -0.0145874249     2     6     9     3
 -0.0000000249     2     6     9     4
 0.0006473145     2     6     9     5
 -0.0000000035     2     6     9    10
 -0.0000000001     2     6    10     9
 0.0000179569     2     7     1     8
 0.0000130310     2     7     1     9
 0.0004669139     2     7     3     8
 0.0003388305     2     7     3     9
 0.0000000002     2     7     4     8
 0.0000000001     2     7     4     9
 -0.0000071751     2     7     5     8
 -0.0000052068     2     7     5     9
 -0.0000000001     2     7     6     1
 0.0000000002     2     7     6     2
 -0.0000000005     2     7     7     1
 -0.5467482251     2     7     7     2
 0.0000000360     2     7     7     3
 0.0214696058     2     7     7     4
 0.0000000026     2     7     7     5
 0.0007118401     2     7     7    10
 0.2693063689     2     7     8     1
 0.0000009033     2     7     8     2
 -0.0145874249     2     7     8     3
 -0.0000000249     2     7     8     4
 0.0006473145     2     7     8     5
 -0.0000000035     2     7     8    10
 0.1954304279     2     7     9     1
 0.0000006555     2     7     9     2
 -0.0105858123     2     7     9     3
 -0.0000000180     2     7     9     4
 0.0004697436     2     7     9     5
 -0.0000000025     2     7     9    10
 -0.0000000001     2     7    10     8
 0.0000130310     2     8     1     6
 -0.0000179569     2     8     1     7
 0.0003388305     2     8     3     6
 -0.0004669139     2     8     3     7
 0.0000000001     2     8     4     6
 -0.0000000002     2     8     4     7
 -0.0000052069     2     8     5     6
 0.0000071751     2     8     5     7
 -0.1954181162     2     8     6     1
 -0.0000006555     2     8     6     2
 0.0113940166     2     8     6     3
 0.0000000191     2     8     6     4
 -0.0002718918     2     8     6     5
 0.0000000026     2     8     6    10
 0.2692894029     2     8     7     1
 0.0000009033     2     8     7     2
 -0.0157011437     2     8     7     3
 -0.0000000263     2     8     7     4
 0.0003746715     2     8     7     5
 -0.0000000036     2     8     7    10
 -0.0000000009     2     8     8     1
 -0.5200682986     2     8     8     2
 0.0000000294     2     8     8     3
 0.0180479775     2     8     8     4
 0.0000000021     2     8     8     5
 0.0008153254     2     8     8    10
 0.0000000001     2     8    10     7
 -0.0000179569     2     9     1     6
 -0.0000130310     2     9     1     7
 -0.0004669139     2     9     3     6
 -0.0003388305     2     9     3     7
 -0.0000000002     2     9     4     6
 -0.0000000001     2     9     4     7
 0.0000071751     2     9     5     6
 0.0000052068     2     9     5     7
 0.2692894029     2     9     6     1
 0.0000009033     2     9     6     2
 -0.0157011437     2     9     6     3
 -0.0000000263     2     9     6     4
 0.0003746715     2     9     6     5
 -0.0000000036     2     9     6    10
 0.1954181160     2     9     7     1
 0.0000006555     2     9     7     2
 -0.0113940166     2     9     7     3
 -0.0000000190     2     9     7     4
 0.0002718918     2     9     7     5
 -0.0000000026     2     9     7    10
 -0.0000000008     2     9     9     1
 -0.5200682986     2     9     9     2
 0.0000000294     2     9     9     3
 0.0180479775     2     9     9     4
 0.0000000021     2     9     9     5
 0.0008153254     2     9     9    10
 0.0000000001     2     9    10     6
 0.0018563179     2    10     1     1
 0.0000000031     2    10     1     2
 0.0000068817     2    10     1     3
 -0.0000454147     2    10     1     5
 -0.0185659832     2    10     3     1
 -0.0000000621     2    10     3     2
 0.0011768094     2    10     3     3
 -0.0000000015     2    10     3     4
 -0.0011456547     2    10     3     5
 -0.0200700795     2    10     4     2
 -0.0000000030     2    10     4     3
 -0.0000300513     2    10     4     4
 -0.0000000003     2    10     4     5
 0.3271676631     2    10     5     1
 0.0000010961     2    10     5     2
 -0.0196506193     2    10     5     3
 -0.0000000323     2    10     5     4
 0.0001560975     2    10     5     5
 -0.0007118401     2    10     6     6
 -0.0000000026     2    10     6     8
 0.0000000036     2    10     6     9
 -0.0007118401     2    10     7     7
 0.0000000036     2    10     7     8
 0.0000000026     2    10     7     9
 -0.0000000025     2    10     8     6
 0.0000000035     2    10     8     7
 -0.0008153254     2    10     8     8
 0.0000000035     2    10     9     6
 0.0000000025     2    10     9     7
 -0.0008153254     2    10     9     9
 0.0000000004     2    10    10     1
 -0.5360296029     2    10    10     2
 0.0000000306     2    10    10     3
 0.0190535906     2    10    10     4
 0.0000000063     2    10    10     5
 -0.0000000001     3     1     1     2
 -0.5414591533     3     1     1     3
 0.0000012348     3     1     1     4
 0.0069859255     3     1     1     5
 0.0000000625     3     1     1    10
 0.0000883720     3     1     2     2
 0.0000000027     3     1     2     3
 -0.3681147902     3     1     2     4
 0.0000000002     3     1     2     5
 -0.0185659832     3     1     2    10
 -0.0000126314     3     1     4     2
 -0.0000000003     3     1     4     3
 -0.0002679180     3     1     4     4
 0.0000000016     3     1     4     5
 0.0009252475     3     1     4    10
 0.0011577515     3     1     5     3
 0.0000000034     3     1     5     4
 -0.0207915720     3     1     5     5
 -0.0000000298     3     1     5    10
 -0.0214135465     3     1     6     6
 0.0000000178     3     1     6     8
 -0.0000000245     3     1     6     9
 -0.0214135465     3     1     7     7
 -0.0000000245     3     1     7     8
 -0.0000000178     3     1     7     9
 0.0000000191     3     1     8     6
 -0.0000000264     3     1     8     7
 -0.0176018602     3     1     8     8
 -0.0000000264     3     1     9     6
 -0.0000000192     3     1     9     7
 -0.0176018602     3     1     9     9
 0.0000068817     3     1    10     2
 0.0000000019     3     1    10     3
 0.0018175510     3     1    10     4
 -0.0000000331     3     1    10     5
 -0.0183011894     3     1    10    10
 0.0000000001     3     2     1     1
 0.0000000027     3     2     1     3
 -0.3681020869     3     2     1     4
 0.0000000002     3     2     1     5
 -0.0185730550     3     2     1    10
 -0.0000883720     3     2     2     1
 -0.5414460346     3     2     2     3
 -0.0000012345     3     2     2     4
 0.0069825794     3     2     2     5
 -0.0000000621     3     2     2    10
 0.0000126314     3     2     4     1
 0.0001421071     3     2     4     3
 -0.0000000004     3     2     4     4
 -0.0009327893     3     2     4     5
 0.0000000015     3     2     4    10
 0.0000000020     3     2     5     3
 -0.0019912595     3     2     5     4
 -0.0000000345     3     2     5     5
 0.0176830209     3     2     5    10
 -0.0000000359     3     2     6     6
 -0.0105858123     3     2     6     8
 0.0145874249     3     2     6     9
 -0.0000000360     3     2     7     7
 0.0145874249     3     2     7     8
 0.0105858123     3     2     7     9
 -0.0113940166     3     2     8     6
 0.0157011437     3     2     8     7
 -0.0000000294     3     2     8     8
 0.0157011437     3     2     9     6
 0.0113940166     3     2     9     7
 -0.0000000294     3     2     9     9
 -0.0000068817     3     2    10     1
 -0.0011768094     3     2    10     3
 0.0000000030     3     2    10     4
 0.0196506193     3     2    10     5
 -0.0000000306     3     2    10    10
 0.5414591533     3     3     1     1
 -0.0000000027     3     3     1     2
 0.0000000003     3     3     1     4
 -0.0011577515     3     3     1     5
 -0.0000000019     3     3     1    10
 -0.0000000027     3     3     2     1
 0.5414460346     3     3     2     2
 -0.0001421071     3     3     2     4
 -0.0000000020     3     3     2     5
 0.0011768094     3     3     2    10
 0.0000000003     3     3     4     1
 -0.0001421071     3     3     4     2
 0.1732839276     3     3     4     4
 -0.0000000005     3     3     4     5
 0.0111280099     3     3     4    10
 -0.0011577515     3     3     5     1
 -0.0000000020     3     3     5     2
 -0.0000000005     3     3     5     4
 0.3487324456     3     3     5     5
 0.0000000019     3     3     5    10
 0.3504375821     3     3     6     6
 -0.0000000001     3     3     6     7
 -0.0000000007     3     3     6     8
 0.0000000009     3     3     6     9
 -0.0000000001     3     3     7     6
 0.3504375819     3     3     7     7
 0.0000000009     3     3     7     8
 0.0000000007     3     3     7     9
 -0.0000000007     3     3     8     6
 0.0000000009     3     3     8     7
 0.3489287449     3     3     8     8
 0.0000000009     3     3     9     6
 0.0000000007     3     3     9     7
 0.3489287448     3     3     9     9
 -0.0000000019     3     3    10     1
 0.0011768094     3     3    10     2
 0.0111280099     3     3    10     4
 0.0000000019     3     3    10     5
 0.3586828580     3     3    10    10
 -0.0000012348     3     4     1     1
 0.3681020869     3     4     1     2
 -0.0000000003     3     4     1     3
 -0.0000000018     3     4     1     5
 -0.0008701346     3     4     1    10
 0.3681147902     3     4     2     1
 0.0000012345     3     4     2     2
 0.0001421071     3     4     2     3
 0.0010553116     3     4     2     5
 -0.0000000015     3     4     2    10
 0.0002679180     3     4     4     1
 0.0000000004     3     4     4     2