&FCI NORB= 10,NELEC= 14,MS2=0,
 ORBSYM=1,1,1,1,1,1,1,1,1,1
 ISYM=1,
&END
 0.1555893030     1     1     2     2
 -0.0000000003     1     1     2     3
 0.0000293741     1     1     2     4
 -0.0000000072     1     1     2     5
 -0.0014298588     1     1     2    10
 -0.0000000003     1     1     3     2
 0.5318650765     1     1     3     3
 -0.0000032676     1     1     3     4
 0.0064198973     1     1     3     5
 -0.0000001007     1     1     3    10
 0.0000293741     1     1     4     2
 -0.0000032676     1     1     4     3
 0.5345857192     1     1     4     4
 0.0000002188     1     1     4     5
 0.0144838332     1     1     4    10
 -0.0000000072     1     1     5     2
 0.0064198973     1     1     5     3
 0.0000002188     1     1     5     4
 0.5342988265     1     1     5     5
 -0.0000029404     1     1     5    10
 0.5374101216     1     1     6     6
 0.0000005359     1     1     6     8
 0.0000029050     1     1     6     9
 0.5374101211     1     1     7     7
 0.0000029050     1     1     7     8
 -0.0000005360     1     1     7     9
 0.0000005359     1     1     8     6
 0.0000029050     1     1     8     7
 0.5083889737     1     1     8     8
 0.0000029050     1     1     9     6
 -0.0000005360     1     1     9     7
 0.5083889737     1     1     9     9
 -0.0014298588     1     1    10     2
 -0.0000001007     1     1    10     3
 0.0144838332     1     1    10     4
 -0.0000029404     1     1    10     5
 0.5196052134     1     1    10    10
 -0.1555893030     1     2     2     1
 0.0000673732     1     2     2     3
 0.0000000002     1     2     2     4
 0.0017026171     1     2     2     5
 -0.0000000061     1     2     2    10
 0.0000000003     1     2     3     1
 -0.0000000162     1     2     3     3
 0.3783545413     1     2     3     4
 -0.0000000005     1     2     3     5
 0.0115867751     1     2     3    10
 -0.0000293741     1     2     4     1
 0.3783675859     1     2     4     3
 0.0000000169     1     2     4     4
 -0.0254052961     1     2     4     5
 -0.0000000018     1     2     4    10
 0.0000000072     1     2     5     1
 -0.0000000005     1     2     5     3
 -0.0254085779     1     2     5     4
 -0.0000000393     1     2     5     5
 0.3402045549     1     2     5    10
 0.0000000225     1     2     6     6
 -0.0000000009     1     2     6     7
 -0.0620337406     1     2     6     8
 -0.3362460030     1     2     6     9
 -0.0000000009     1     2     7     6
 0.0000000231     1     2     7     7
 -0.3362460026     1     2     7     8
 0.0620337405     1     2     7     9
 -0.0620311461     1     2     8     6
 -0.3362319398     1     2     8     7
 -0.0000000219     1     2     8     8
 0.0000000011     1     2     8     9
 -0.3362319402     1     2     9     6
 0.0620311461     1     2     9     7
 0.0000000011     1     2     9     8
 -0.0000000220     1     2     9     9
 0.0014298588     1     2    10     1
 0.0115817908     1     2    10     3
 -0.0000000018     1     2    10     4
 0.3401738092     1     2    10     5
 0.0000000367     1     2    10    10
 0.0000000003     1     3     2     1
 -0.0000673732     1     3     2     2
 -0.0000129246     1     3     2     4
 0.0000048680     1     3     2    10
 -0.5318650765     1     3     3     1
 0.0000000162     1     3     3     2
 0.0000000006     1     3     3     4
 0.0008388689     1     3     3     5
 -0.0000000036     1     3     3    10
 0.0000032676     1     3     4     1
 -0.3783675859     1     3     4     2
 0.0002208920     1     3     4     4
 0.0000000066     1     3     4     5
 -0.0013408014     1     3     4    10
 -0.0064198973     1     3     5     1
 0.0000000005     1     3     5     2
 0.0000000027     1     3     5     4
 0.0211195781     1     3     5     5
 -0.0000000851     1     3     5    10
 0.0215004822     1     3     6     6
 0.0000000153     1     3     6     8
 0.0000000828     1     3     6     9
 0.0215004822     1     3     7     7
 0.0000000828     1     3     7     8
 -0.0000000153     1     3     7     9
 0.0000000143     1     3     8     6
 0.0000000776     1     3     8     7
 0.0174974878     1     3     8     8
 0.0000000775     1     3     9     6
 -0.0000000143     1     3     9     7
 0.0174974878     1     3     9     9
 0.0000001007     1     3    10     1
 -0.0115817908     1     3    10     2
 -0.0006515417     1     3    10     4
 -0.0000000779     1     3    10     5
 0.0179778131     1     3    10    10
 -0.0000293741     1     4     2     1
 -0.0000000002     1     4     2     2
 0.0000129246     1     4     2     3
 0.0000031547     1     4     2     5
 0.0000032676     1     4     3     1
 -0.3783545413     1     4     3     2
 -0.0000000006     1     4     3     3
 0.0000000038     1     4     3     5
 -0.0006807999     1     4     3    10
 -0.5345857192     1     4     4     1
 -0.0000000169     1     4     4     2
 -0.0002208920     1     4     4     3
 0.0001271655     1     4     4     5
 -0.0000000003     1     4     4    10
 -0.0000002188     1     4     5     1
 0.0254085779     1     4     5     2
 -0.0000000027     1     4     5     3
 -0.0000000918     1     4     5     5
 0.0193397562     1     4     5    10
 -0.0000000911     1     4     6     6
 -0.0035012124     1     4     6     8
 -0.0189778768     1     4     6     9
 -0.0000000910     1     4     7     7
 -0.0189778768     1     4     7     8
 0.0035012124     1     4     7     9
 -0.0033207867     1     4     8     6
 -0.0179999018     1     4     8     7
 -0.0000000774     1     4     8     8
 -0.0179999018     1     4     9     6
 0.0033207867     1     4     9     7
 -0.0000000774     1     4     9     9
 -0.0144838332     1     4    10     1
 0.0000000018     1     4    10     2
 0.0006515417     1     4    10     3
 0.0183469997     1     4    10     5
 -0.0000000775     1     4    10    10
 0.0000000072     1     5     2     1
 -0.0017026171     1     5     2     2
 -0.0000031547     1     5     2     4
 0.0000311760     1     5     2    10
 -0.0064198973     1     5     3     1
 0.0000000005     1     5     3     2
 -0.0008388689     1     5     3     3
 -0.0000000038     1     5     3     4
 -0.0000000038     1     5     3    10
 -0.0000002188     1     5     4     1
 0.0254052961     1     5     4     2
 -0.0000000066     1     5     4     3
 -0.0001271655     1     5     4     4
 0.0001558717     1     5     4    10
 -0.5342988265     1     5     5     1
 0.0000000393     1     5     5     2
 -0.0211195781     1     5     5     3
 0.0000000918     1     5     5     4
 -0.0000000014     1     5     5    10
 -0.0010718714     1     5     6     6
 0.0000000004     1     5     6     8
 0.0000000022     1     5     6     9
 -0.0010718713     1     5     7     7
 0.0000000022     1     5     7     8
 -0.0000000004     1     5     7     9
 0.0000000006     1     5     8     6
 0.0000000035     1     5     8     7
 -0.0008704691     1     5     8     8
 0.0000000035     1     5     9     6
 -0.0000000006     1     5     9     7
 -0.0008704690     1     5     9     9
 0.0000029404     1     5    10     1
 -0.3401738092     1     5    10     2
 0.0000000779     1     5    10     3
 -0.0183469997     1     5    10     4
 -0.0026763141     1     5    10    10
 -0.0000027839     1     6     2     8
 -0.0000150899     1     6     2     9
 0.0000000004     1     6     3     8
 0.0000000020     1     6     3     9
 -0.0000327605     1     6     4     8
 -0.0001775742     1     6     4     9
 -0.0000000001     1     6     5     9
 -0.5374101216     1     6     6     1
 -0.0000000225     1     6     6     2
 -0.0215004822     1     6     6     3
 0.0000000911     1     6     6     4
 0.0010718714     1     6     6     5
 0.0000000016     1     6     6    10
 0.0000000009     1     6     7     2
 -0.0000005359     1     6     8     1
 0.0620311461     1     6     8     2
 -0.0000000143     1     6     8     3
 0.0033207867     1     6     8     4
 -0.0000000006     1     6     8     5
 0.0003289270     1     6     8    10
 -0.0000029050     1     6     9     1
 0.3362319402     1     6     9     2
 -0.0000000775     1     6     9     3
 0.0179999018     1     6     9     4
 -0.0000000035     1     6     9     5
 0.0017829071     1     6     9    10
 0.0000101950     1     6    10     8
 0.0000552607     1     6    10     9
 -0.0000150898     1     7     2     8
 0.0000027839     1     7     2     9
 0.0000000020     1     7     3     8
 -0.0000000004     1     7     3     9
 -0.0001775741     1     7     4     8
 0.0000327605     1     7     4     9
 -0.0000000001     1     7     5     8
 0.0000000009     1     7     6     2
 -0.5374101211     1     7     7     1
 -0.0000000231     1     7     7     2
 -0.0215004822     1     7     7     3
 0.0000000910     1     7     7     4
 0.0010718713     1     7     7     5
 0.0000000016     1     7     7    10
 -0.0000029050     1     7     8     1
 0.3362319398     1     7     8     2
 -0.0000000776     1     7     8     3
 0.0179999018     1     7     8     4
 -0.0000000035     1     7     8     5
 0.0017829071     1     7     8    10
 0.0000005360     1     7     9     1
 -0.0620311461     1     7     9     2
 0.0000000143     1     7     9     3
 -0.0033207867     1     7     9     4
 0.0000000006     1     7     9     5
 -0.0003289270     1     7     9    10
 0.0000552607     1     7    10     8
 -0.0000101950     1     7    10     9
 0.0000027839     1     8     2     6
 0.0000150898     1     8     2     7
 -0.0000000004     1     8     3     6
 -0.0000000020     1     8     3     7
 0.0000327605     1     8     4     6
 0.0001775741     1     8     4     7
 0.0000000001     1     8     5     7
 -0.0000005359     1     8     6     1
 0.0620337406     1     8     6     2
 -0.0000000153     1     8     6     3
 0.0035012124     1     8     6     4
 -0.0000000004     1     8     6     5
 0.0003377644     1     8     6    10
 -0.0000029050     1     8     7     1
 0.3362460026     1     8     7     2
 -0.0000000828     1     8     7     3
 0.0189778768     1     8     7     4
 -0.0000000022     1     8     7     5
 0.0018308089     1     8     7    10
 -0.5083889737     1     8     8     1
 0.0000000219     1     8     8     2
 -0.0174974878     1     8     8     3
 0.0000000774     1     8     8     4
 0.0008704691     1     8     8     5
 0.0000000020     1     8     8    10
 -0.0000000011     1     8     9     2
 -0.0000101950     1     8    10     6
 -0.0000552607     1     8    10     7
 0.0000150899     1     9     2     6
 -0.0000027839     1     9     2     7
 -0.0000000020     1     9     3     6
 0.0000000004     1     9     3     7
 0.0001775742     1     9     4     6
 -0.0000327605     1     9     4     7
 0.0000000001     1     9     5     6
 -0.0000029050     1     9     6     1
 0.3362460030     1     9     6     2
 -0.0000000828     1     9     6     3
 0.0189778768     1     9     6     4
 -0.0000000022     1     9     6     5
 0.0018308089     1     9     6    10
 0.0000005360     1     9     7     1
 -0.0620337405     1     9     7     2
 0.0000000153     1     9     7     3
 -0.0035012124     1     9     7     4
 0.0000000004     1     9     7     5
 -0.0003377644     1     9     7    10
 -0.0000000011     1     9     8     2
 -0.5083889737     1     9     9     1
 0.0000000220     1     9     9     2
 -0.0174974878     1     9     9     3
 0.0000000774     1     9     9     4
 0.0008704690     1     9     9     5
 0.0000000020     1     9     9    10
 -0.0000552607     1     9    10     6
 0.0000101950     1     9    10     7
 0.0014298588     1    10     2     1
 0.0000000061     1    10     2     2
 -0.0000048680     1    10     2     3
 -0.0000311760     1    10     2     5
 0.0000001007     1    10     3     1
 -0.0115867751     1    10     3     2
 0.0000000036     1    10     3     3
 0.0006807999     1    10     3     4
 0.0000000038     1    10     3     5
 -0.0144838332     1    10     4     1
 0.0000000018     1    10     4     2
 0.0013408014     1    10     4     3
 0.0000000003     1    10     4     4
 -0.0001558717     1    10     4     5
 0.0000029404     1    10     5     1
 -0.3402045549     1    10     5     2
 0.0000000851     1    10     5     3
 -0.0193397562     1    10     5     4
 0.0000000014     1    10     5     5
 -0.0000000016     1    10     6     6
 -0.0003377644     1    10     6     8
 -0.0018308089     1    10     6     9
 -0.0000000016     1    10     7     7
 -0.0018308089     1    10     7     8
 0.0003377644     1    10     7     9
 -0.0003289270     1    10     8     6
 -0.0017829071     1    10     8     7
 -0.0000000020     1    10     8     8
 -0.0017829071     1    10     9     6
 0.0003289270     1    10     9     7
 -0.0000000020     1    10     9     9
 -0.5196052134     1    10    10     1
 -0.0000000367     1    10    10     2
 -0.0179778131     1    10    10     3
 0.0000000775     1    10    10     4
 0.0026763141     1    10    10     5
 -0.1555893030     2     1     1     2
 0.0000000003     2     1     1     3
 -0.0000293741     2     1     1     4
 0.0000000072     2     1     1     5
 0.0014298588     2     1     1    10
 0.0000673732     2     1     3     2
 -0.0000000162     2     1     3     3
 0.3783675859     2     1     3     4
 -0.0000000005     2     1     3     5
 0.0115817908     2     1     3    10
 0.0000000002     2     1     4     2
 0.3783545413     2     1     4     3
 0.0000000169     2     1     4     4
 -0.0254085779     2     1     4     5
 -0.0000000018     2     1     4    10
 0.0017026171     2     1     5     2
 -0.0000000005     2     1     5     3
 -0.0254052961     2     1     5     4
 -0.0000000393     2     1     5     5
 0.3401738092     2     1     5    10
 0.0000000225     2     1     6     6
 -0.0000000009     2     1     6     7
 -0.0620311461     2     1     6     8
 -0.3362319402     2     1     6     9
 -0.0000000009     2     1     7     6
 0.0000000231     2     1     7     7
 -0.3362319398     2     1     7     8
 0.0620311461     2     1     7     9
 -0.0620337406     2     1     8     6
 -0.3362460026     2     1     8     7
 -0.0000000219     2     1     8     8
 0.0000000011     2     1     8     9
 -0.3362460030     2     1     9     6
 0.0620337405     2     1     9     7
 0.0000000011     2     1     9     8
 -0.0000000220     2     1     9     9
 -0.0000000061     2     1    10     2
 0.0115867751     2     1    10     3
 -0.0000000018     2     1    10     4
 0.3402045549     2     1    10     5
 0.0000000367     2     1    10    10
 0.1555893030     2     2     1     1
 -0.0000673732     2     2     1     3
 -0.0000000002     2     2     1     4
 -0.0017026171     2     2     1     5
 0.0000000061     2     2     1    10
 -0.0000673732     2     2     3     1
 0.5318518188     2     2     3     3
 0.0000032683     2     2     3     4
 0.0064172863     2     2     3     5
 0.0000000995     2     2     3    10
 -0.0000000002     2     2     4     1
 0.0000032683     2     2     4     3
 0.5345984011     2     2     4     4
 -0.0000002201     2     2     4     5
 0.0144793301     2     2     4    10
 -0.0017026171     2     2     5     1
 0.0064172863     2     2     5     3
 -0.0000002201     2     2     5     4
 0.5343342843     2     2     5     5
 0.0000029361     2     2     5    10
 0.5374284529     2     2     6     6
 -0.0000005356     2     2     6     8
 -0.0000029033     2     2     6     9
 0.5374284525     2     2     7     7
 -0.0000029034     2     2     7     8
 0.0000005356     2     2     7     9
 -0.0000005356     2     2     8     6
 -0.0000029034     2     2     8     7
 0.5083764256     2     2     8     8
 -0.0000029033     2     2     9     6
 0.0000005356     2     2     9     7
 0.5083764255     2     2     9     9
 0.0000000061     2     2    10     1
 0.0000000995     2     2    10     3
 0.0144793301     2     2    10     4
 0.0000029361     2     2    10     5
 0.5195766693     2     2    10    10
 -0.0000000003     2     3     1     1
 0.0000673732     2     3     1     2
 0.0000129246     2     3     1     4
 -0.0000048680     2     3     1    10
 0.0000000162     2     3     3     1
 -0.5318518188     2     3     3     2
 -0.0001414756     2     3     3     4
 0.0000000036     2     3     3     5
 0.0008568610     2     3     3    10
 -0.3783545413     2     3     4     1
 -0.0000032683     2     3     4     2
 0.0000000010     2     3     4     4
 -0.0014942163     2     3     4     5
 -0.0000000059     2     3     4    10
 0.0000000005     2     3     5     1
 -0.0064172863     2     3     5     2
 -0.0006126866     2     3     5     4
 0.0000000888     2     3     5     5
 0.0196180827     2     3     5    10
 0.0000000936     2     3     6     6
 -0.0035187303     2     3     6     8
 -0.0190728302     2     3     6     9
 0.0000000937     2     3     7     7
 -0.0190728302     2     3     7     8
 0.0035187303     2     3     7     9
 -0.0032877504     2     3     8     6
 -0.0178208332     2     3     8     7
 0.0000000741     2     3     8     8
 -0.0178208332     2     3     9     6
 0.0032877504     2     3     9     7
 0.0000000741     2     3     9     9
 -0.0115867751     2     3    10     1
 -0.0000000995     2     3    10     2
 -0.0000000028     2     3    10     4
 0.0180007272     2     3    10     5
 0.0000000791     2     3    10    10
 0.0000293741     2     4     1     1
 0.0000000002     2     4     1     2
 -0.0000129246     2     4     1     3
 -0.0000031547     2     4     1     5
 -0.3783675859     2     4     3     1
 -0.0000032683     2     4     3     2
 0.0001414756     2     4     3     3
 -0.0008819505     2     4     3     5
 -0.0000000030     2     4     3    10
 -0.0000000169     2     4     4     1
 -0.5345984011     2     4     4     2
 -0.0000000010     2     4     4     3
 0.0000000005     2     4     4     5
 0.0000740417     2     4     4    10
 0.0254052961     2     4     5     1
 0.0000002201     2     4     5     2
 0.0006126866     2     4     5     3
 0.0208861990     2     4     5     5
 0.0000000839     2     4     5    10
 0.0214959574     2     4     6     6
 -0.0000000152     2     4     6     8
 -0.0000000823     2     4     6     9
 0.0214959574     2     4     7     7
 -0.0000000823     2     4     7     8
 0.0000000152     2     4     7     9
 -0.0000000144     2     4     8     6
 -0.0000000779     2     4     8     7
 0.0177733023     2     4     8     8
 -0.0000000780     2     4     9     6
 0.0000000144     2     4     9     7
 0.0177733022     2     4     9     9
 0.0000000018     2     4    10     1
 -0.0144793301     2     4    10     2
 0.0000000028     2     4    10     3
 0.0000000798     2     4    10     5
 0.0184517218     2     4    10    10
 -0.0000000072     2     5     1     1
 0.0017026171     2     5     1     2
 0.0000031547     2     5     1     4
 -0.0000311760     2     5     1    10
 0.0000000005     2     5     3     1
 -0.0064172863     2     5     3     2
 -0.0000000036     2     5     3     3
 0.0008819505     2     5     3     4
 0.0008478509     2     5     3    10
 0.0254085779     2     5     4     1
 0.0000002201     2     5     4     2
 0.0014942163     2     5     4     3
 -0.0000000005     2     5     4     4
 0.0000000006     2     5     4    10
 0.0000000393     2     5     5     1
 -0.5343342843     2     5     5     2
 -0.0000000888     2     5     5     3
 -0.0208861990     2     5     5     4
 0.0003353809     2     5     5    10
 -0.0000000046     2     5     6     6
 -0.0000882257     2     5     6     8
 -0.0004782159     2     5     6     9
 -0.0000000046     2     5     7     7
 -0.0004782159     2     5     7     8
 0.0000882257     2     5     7     9
 -0.0001433195     2     5     8     6
 -0.0007768450     2     5     8     7
 -0.0000000039     2     5     8     8
 -0.0007768450     2     5     9     6
 0.0001433195     2     5     9     7
 -0.0000000039     2     5     9     9
 -0.3402045549     2     5    10     1
 -0.0000029361     2     5    10     2
 -0.0180007272     2     5    10     3
 -0.0000000798     2     5    10     4
 -0.0000000115     2     5    10    10
 0.0000027839     2     6     1     8
 0.0000150899     2     6     1     9
 -0.0000898372     2     6     3     8
 -0.0004869507     2     6     3     9
 -0.0000000001     2     6     4     8
 -0.0000000008     2     6     4     9
 0.0000044574     2     6     5     8
 0.0000241607     2     6     5     9
 -0.0000000225     2     6     6     1
 -0.5374284529     2     6     6     2
 -0.0000000936     2     6     6     3
 -0.0214959574     2     6     6     4
 0.0000000046     2     6     6     5
 -0.0003702913     2     6     6    10
 0.0000000009     2     6     7     1
 0.0620337406     2     6     8     1
 0.0000005356     2     6     8     2
 0.0032877504     2     6     8     3
 0.0000000144     2     6     8     4
 0.0001433195     2     6     8     5
 0.0000000014     2     6     8    10
 0.3362460030     2     6     9     1
 0.0000029033     2     6     9     2
 0.0178208332     2     6     9     3
 0.0000000780     2     6     9     4
 0.0007768450     2     6     9     5
 0.0000000077     2     6     9    10
 0.0000000001     2     6    10     9
 0.0000150898     2     7     1     8
 -0.0000027839     2     7     1     9
 -0.0004869507     2     7     3     8
 0.0000898372     2     7     3     9
 -0.0000000009     2     7     4     8
 0.0000000001     2     7     4     9
 0.0000241607     2     7     5     8
 -0.0000044574     2     7     5     9
 0.0000000009     2     7     6     1
 -0.0000000231     2     7     7     1
 -0.5374284525     2     7     7     2
 -0.0000000937     2     7     7     3
 -0.0214959574     2     7     7     4
 0.0000000046     2     7     7     5
 -0.0003702913     2     7     7    10
 0.3362460026     2     7     8     1
 0.0000029034     2     7     8     2
 0.0178208332     2     7     8     3
 0.0000000779     2     7     8     4
 0.0007768450     2     7     8     5
 0.0000000077     2     7     8    10
 -0.0620337405     2     7     9     1
 -0.0000005356     2     7     9     2
 -0.0032877504     2     7     9     3
 -0.0000000144     2     7     9     4
 -0.0001433195     2     7     9     5
 -0.0000000014     2     7     9    10
 0.0000000001     2     7    10     8
 -0.0000027839     2     8     1     6
 -0.0000150898     2     8     1     7
 0.0000898372     2     8     3     6
 0.0004869507     2     8     3     7
 0.0000000001     2     8     4     6
 0.0000000009     2     8     4     7
 -0.0000044574     2     8     5     6
 -0.0000241607     2     8     5     7
 0.0620311461     2     8     6     1
 0.0000005356     2     8     6     2
 0.0035187303     2     8     6     3
 0.0000000152     2     8     6     4
 0.0000882257     2     8     6     5
 0.0000000015     2     8     6    10
 0.3362319398     2     8     7     1
 0.0000029034     2     8     7     2
 0.0190728302     2     8     7     3
 0.0000000823     2     8     7     4
 0.0004782159     2     8     7     5
 0.0000000079     2     8     7    10
 0.0000000219     2     8     8     1
 -0.5083764256     2     8     8     2
 -0.0000000741     2     8     8     3
 -0.0177733023     2     8     8     4
 0.0000000039     2     8     8     5
 -0.0004185040     2     8     8    10
 -0.0000000011     2     8     9     1
 -0.0000000001     2     8    10     7
 -0.0000150899     2     9     1     6
 0.0000027839     2     9     1     7
 0.0004869507     2     9     3     6
 -0.0000898372     2     9     3     7
 0.0000000008     2     9     4     6
 -0.0000000001     2     9     4     7
 -0.0000241607     2     9     5     6
 0.0000044574     2     9     5     7
 0.3362319402     2     9     6     1
 0.0000029033     2     9     6     2
 0.0190728302     2     9     6     3
 0.0000000823     2     9     6     4
 0.0004782159     2     9     6     5
 0.0000000079     2     9     6    10
 -0.0620311461     2     9     7     1
 -0.0000005356     2     9     7     2
 -0.0035187303     2     9     7     3
 -0.0000000152     2     9     7     4
 -0.0000882257     2     9     7     5
 -0.0000000015     2     9     7    10
 -0.0000000011     2     9     8     1
 0.0000000220     2     9     9     1
 -0.5083764255     2     9     9     2
 -0.0000000741     2     9     9     3
 -0.0177733022     2     9     9     4
 0.0000000039     2     9     9     5
 -0.0004185041     2     9     9    10
 -0.0000000001     2     9    10     6
 -0.0014298588     2    10     1     1
 -0.0000000061     2    10     1     2
 0.0000048680     2    10     1     3
 0.0000311760     2    10     1     5
 -0.0115817908     2    10     3     1
 -0.0000000995     2    10     3     2
 -0.0008568610     2    10     3     3
 0.0000000030     2    10     3     4
 -0.0008478509     2    10     3     5
 0.0000000018     2    10     4     1
 -0.0144793301     2    10     4     2
 0.0000000059     2    10     4     3
 -0.0000740417     2    10     4     4
 -0.0000000006     2    10     4     5
 -0.3401738092     2    10     5     1
 -0.0000029361     2    10     5     2
 -0.0196180827     2    10     5     3
 -0.0000000839     2    10     5     4
 -0.0003353809     2    10     5     5
 0.0003702913     2    10     6     6
 -0.0000000015     2    10     6     8
 -0.0000000079     2    10     6     9
 0.0003702913     2    10     7     7
 -0.0000000079     2    10     7     8
 0.0000000015     2    10     7     9
 -0.0000000014     2    10     8     6
 -0.0000000077     2    10     8     7
 0.0004185040     2    10     8     8
 -0.0000000077     2    10     9     6
 0.0000000014     2    10     9     7
 0.0004185041     2    10     9     9
 -0.0000000367     2    10    10     1
 -0.5195766693     2    10    10     2
 -0.0000000791     2    10    10     3
 -0.0184517218     2    10    10     4
 0.0000000115     2    10    10     5
 0.0000000003     3     1     1     2
 -0.5318650765     3     1     1     3
 0.0000032676     3     1     1     4
 -0.0064198973     3     1     1     5
 0.0000001007     3     1     1    10
 -0.0000673732     3     1     2     2
 0.0000000162     3     1     2     3
 -0.3783675859     3     1     2     4
 0.0000000005     3     1     2     5
 -0.0115817908     3     1     2    10
 -0.0000129246     3     1     4     2
 0.0000000006     3     1     4     3
 0.0002208920     3     1     4     4
 0.0000000027     3     1     4     5
 -0.0006515417     3     1     4    10
 0.0008388689     3     1     5     3
 0.0000000066     3     1     5     4
 0.0211195781     3     1     5     5
 -0.0000000779     3     1     5    10
 0.0215004822     3     1     6     6
 0.0000000143     3     1     6     8
 0.0000000775     3     1     6     9
 0.0215004822     3     1     7     7
 0.0000000776     3     1     7     8
 -0.0000000143     3     1     7     9
 0.0000000153     3     1     8     6
 0.0000000828     3     1     8     7
 0.0174974878     3     1     8     8
 0.0000000828     3     1     9     6
 -0.0000000153     3     1     9     7
 0.0174974878     3     1     9     9
 0.0000048680     3     1    10     2
 -0.0000000036     3     1    10     3
 -0.0013408014     3     1    10     4
 -0.0000000851     3     1    10     5
 0.0179778131     3     1    10    10
 -0.0000000003     3     2     1     1
 0.0000000162     3     2     1     3
 -0.3783545413     3     2     1     4
 0.0000000005     3     2     1     5
 -0.0115867751     3     2     1    10
 0.0000673732     3     2     2     1
 -0.5318518188     3     2     2     3
 -0.0000032683     3     2     2     4
 -0.0064172863     3     2     2     5
 -0.0000000995     3     2     2    10
 0.0000129246     3     2     4     1
 -0.0001414756     3     2     4     3
 0.0000000010     3     2     4     4
 -0.0006126866     3     2     4     5
 -0.0000000028     3     2     4    10
 0.0000000036     3     2     5     3
 -0.0014942163     3     2     5     4
 0.0000000888     3     2     5     5
 0.0180007272     3     2     5    10
 0.0000000936     3     2     6     6
 -0.0032877504     3     2     6     8
 -0.0178208332     3     2     6     9
 0.0000000937     3     2     7     7
 -0.0178208332     3     2     7     8
 0.0032877504     3     2     7     9
 -0.0035187303     3     2     8     6
 -0.0190728302     3     2     8     7
 0.0000000741     3     2     8     8
 -0.0190728302     3     2     9     6
 0.0035187303     3     2     9     7
 0.0000000741     3     2     9     9
 -0.0000048680     3     2    10     1
 0.0008568610     3     2    10     3
 -0.0000000059     3     2    10     4
 0.0196180827     3     2    10     5
 0.0000000791     3     2    10    10
 0.5318650765     3     3     1     1
 -0.0000000162     3     3     1     2
 -0.0000000006     3     3     1     4
 -0.0008388689     3     3     1     5
 0.0000000036     3     3     1    10
 -0.0000000162     3     3     2     1
 0.5318518188     3     3     2     2
 0.0001414756     3     3     2     4
 -0.0000000036     3     3     2     5
 -0.0008568610     3     3     2    10
 -0.0000000006     3     3     4     1
 0.0001414756     3     3     4     2
 0.1528371637     3     3     4     4
 0.0000000001     3     3     4     5
 0.0096220963     3     3     4    10
 -0.0008388689     3     3     5     1
 -0.0000000036     3     3     5     2
 0.0000000001     3     3     5     4
 0.3406457143     3     3     5     5
 -0.0000000094     3     3     5    10
 0.3415157850     3     3     6     6
 0.0000000014     3     3     6     8
 0.0000000071     3     3     6     9
 0.3415157844     3     3     7     7
 0.0000000071     3     3     7     8
 -0.0000000013     3     3     7     9
 0.0000000014     3     3     8     6
 0.0000000071     3     3     8     7
 0.3380247801     3     3     8     8
 -0.0000000001     3     3     8     9
 0.0000000071     3     3     9     6
 -0.0000000013     3     3     9     7
 -0.0000000001     3     3     9     8
 0.3380247798     3     3     9     9
 0.0000000036     3     3    10     1
 -0.0008568610     3     3    10     2
 0.0096220963     3     3    10     4